 *******************************************************************************
 ** Site#: 36969        For non-commercial use only    Version 21.051W 64BITS **
 *******************************************************************************
 ** Cite this program as: MOPAC2016, Version: 21.051W, James J. P. Stewart,   **
 ** Stewart Computational Chemistry, web: HTTP://OpenMOPAC.net. Days left: 295**
 *******************************************************************************
 **                                                                           **
 **                                MOPAC2016                                  **
 **                                                                           **
 *******************************************************************************

                              PM7 CALCULATION RESULTS

 *******************************************************************************
 *  CALCULATION DONE:                                Sat May  1 14:35:15 2021  *
 *  PM7        - The PM7 Hamiltonian to be used
 *  FORCE      - FORCE CALCULATION SPECIFIED
 *  T=         - A TIME OF 172800.0 SECONDS REQUESTED
 *  DUMP=N     - RESTART FILE WRITTEN EVERY 7200.0 SECONDS REQUESTED
 *******************************************************************************
PM7 FORCE
 TS_0_FREQ

   ATOM   CHEMICAL          X               Y               Z
  NUMBER   SYMBOL      (ANGSTROMS)     (ANGSTROMS)     (ANGSTROMS)
 
     1       C          0.19732273  *  -0.88948442  *  -1.95023026  *
     2       H          1.29044244  *  -0.92123418  *  -1.92229316  *
     3       C         -0.48447648  *   0.31151998  *  -1.99580699  *
     4       H         -1.52617908  *   0.33363781  *  -2.32685533  *
     5       C          0.06967913  *   1.48606697  *  -1.46724255  *
     6       H         -0.56844596  *   2.37272572  *  -1.39715283  *
     7       C          1.32149401  *   1.49690350  *  -0.88361223  *
     8       H          2.12361927  *   0.85660429  *  -1.22869188  *
     9       H          1.68410109  *   2.38281442  *  -0.37381966  *
    10       C         -0.47318936  *  -2.15557208  *  -2.35056116  *
    11       H          0.07070332  *  -3.05090887  *  -2.02193007  *
    12       H         -1.49680507  *  -2.23967893  *  -1.94114721  *
    13       H         -0.56865348  *  -2.22238909  *  -3.44612496  *
    14       O         -1.27204454  *   0.36670825  *   1.17579162  *
    15       C         -0.05045008  *   1.02190260  *   1.34204486  *
    16       C         -1.05751745  *  -0.87371705  *   0.53475631  *
    17       C          1.02068045  *   0.15666779  *   0.73011761  *
    18       O         -0.00397615  *   2.07402511  *   1.90011431  *
    19       C          0.38724811  *  -0.99321910  *   0.25636868  *
    20       O         -1.99176666  *  -1.58913004  *   0.33910936  *
    21       H          0.84014245  *  -1.95848878  *   0.11118599  *
    22       C          2.39849675  *   0.21474757  *   1.27175235  *
    23       H          2.74903956  *   1.24711011  *   1.43247235  *
    24       H          2.44807674  *  -0.28425427  *   2.25698966  *
    25       H          3.13271390  *  -0.28671159  *   0.62530571  *
 


          CARTESIAN COORDINATES 

    NO.       ATOM           X           Y           Z

     1         C          0.1973     -0.8895     -1.9502
     2         H          1.2904     -0.9212     -1.9223
     3         C         -0.4845      0.3115     -1.9958
     4         H         -1.5262      0.3336     -2.3269
     5         C          0.0697      1.4861     -1.4672
     6         H         -0.5684      2.3727     -1.3972
     7         C          1.3215      1.4969     -0.8836
     8         H          2.1236      0.8566     -1.2287
     9         H          1.6841      2.3828     -0.3738
    10         C         -0.4732     -2.1556     -2.3506
    11         H          0.0707     -3.0509     -2.0219
    12         H         -1.4968     -2.2397     -1.9411
    13         H         -0.5687     -2.2224     -3.4461
    14         O         -1.2720      0.3667      1.1758
    15         C         -0.0505      1.0219      1.3420
    16         C         -1.0575     -0.8737      0.5348
    17         C          1.0207      0.1567      0.7301
    18         O         -0.0040      2.0740      1.9001
    19         C          0.3872     -0.9932      0.2564
    20         O         -1.9918     -1.5891      0.3391
    21         H          0.8401     -1.9585      0.1112
    22         C          2.3985      0.2147      1.2718
    23         H          2.7490      1.2471      1.4325
    24         H          2.4481     -0.2843      2.2570
    25         H          3.1327     -0.2867      0.6253

 General Reference for PM7:
 "Optimization of Parameters for Semiempirical Methods VI: More Modifications to the 
 NDDO Approximations and Re-optimization of Parameters", J. J. P. Stewart, J. Mol. Mod., 1:32, 19 (2013)
 https://link.springer.com/article/10.1007/s00894-012-1667-x

           Empirical Formula: C10 H12 O3  =    25 atoms



      MOLECULAR POINT GROUP   :   C1  


      RHF CALCULATION, NO. OF DOUBLY OCCUPIED LEVELS = 35



          HEAT OF FORMATION =     -61.137439 KCALS/MOLE


          CARTESIAN COORDINATE DERIVATIVES

   NUMBER  ATOM         X            Y            Z

     1       C      0.737884    -0.335572     0.249215
     2       H      0.072813    -0.094238     0.634501
     3       C     -0.325503     0.612188     0.147407
     4       H     -0.283100     0.166993     0.119428
     5       C     -0.642916     0.117093     0.068395
     6       H      0.135985    -0.276286     0.009208
     7       C      0.969108    -0.436679     0.408003
     8       H      0.052527     0.587966    -0.067726
     9       H      0.137362     0.491927    -0.540932
    10       C     -0.069269     0.437649     0.183741
    11       H     -0.086151    -0.052983    -0.052780
    12       H     -0.242831     0.044502    -0.189575
    13       H      0.141311    -0.159192     0.125571
    14       O     -0.337766    -0.243339     0.240537
    15       C      0.195385     0.024063    -0.436389
    16       C     -0.201511    -0.106103     0.053346
    17       C      0.390427     0.684134    -0.204859
    18       O      0.181855    -0.102468     0.096460
    19       C     -0.245404    -0.373432    -0.190827
    20       O     -0.193478    -0.415627    -0.367757
    21       H      0.002153    -0.611124     0.184620
    22       C     -0.205475    -0.017325    -0.093118
    23       H     -0.165292     0.014548    -0.436120
    24       H     -0.291103     0.025720     0.197900
    25       H      0.272984     0.017578    -0.138256
 


          GRADIENT NORM =   2.75648

          MOLECULAR WEIGHT =  180.20



          ROTATIONAL CONSTANTS IN CM(-1)

          A =    0.03879560   B =    0.02607844   C =    0.02199634



           PRINCIPAL MOMENTS OF INERTIA IN UNITS OF 10**(-40)*GRAM-CM**2

          A =      721.5451   B =     1073.4068   C =     1272.6107


          ORIENTATION OF MOLECULE IN FORCE CALCULATION

    NO.       ATOM         X         Y         Z

     1          C       0.1870   -0.8785   -1.9216
     2          H       1.2810   -0.8785   -1.9216
     3          C      -0.5303    0.3025   -1.9216
     4          H      -1.5803    0.3014   -2.2261
     5          C       0.0029    1.4805   -1.3792
     6          H      -0.6587    2.3460   -1.2721
     7          C       1.2683    1.5149   -0.8267
     8          H       2.0796    0.9068   -1.2068
     9          H       1.6180    2.3992   -0.3052
    10          C      -0.4565   -2.1543   -2.3352
    11          H       0.1214   -3.0405   -2.0416
    12          H      -1.4664   -2.2781   -1.9026
    13          H      -0.5779   -2.1986   -3.4294
    14          O      -1.2379    0.2612    1.2690
    15          C      -0.0320    0.9482    1.4204
    16          C      -1.0039   -0.9572    0.5934
    17          C       1.0479    0.1295    0.7616
    18          O      -0.0018    1.9881    2.0020
    19          C       0.4362   -1.0274    0.2765
    20          O      -1.9217   -1.6953    0.4041
    21          H       0.9130   -1.9753    0.0971
    22          C       2.4368    0.2158    1.2700
    23          H       2.7612    1.2541    1.4465
    24          H       2.5260   -0.3041    2.2416
    25          H       3.1685   -0.2486    0.5938


    FIRST DERIVATIVES WILL BE USED IN THE CALCULATION OF SECOND DERIVATIVES

          ESTIMATED TIME TO COMPLETE CALCULATION =        1.76 SECONDS

    FOR POINT-GROUP C1   THERE ARE   1 UNIQUE SYMMETRY FUNCTIONS.

 STEP:   1 TIME =     0.02 SECS, INTEGRAL =      0.02 TIME LEFT: 172799.97
 STEP:   2 TIME =     0.03 SECS, INTEGRAL =      0.05 TIME LEFT: 172799.94
 STEP:   3 TIME =     0.02 SECS, INTEGRAL =      0.07 TIME LEFT: 172799.92
 STEP:   4 TIME =     0.01 SECS, INTEGRAL =      0.08 TIME LEFT: 172799.91
 STEP:   5 TIME =     0.02 SECS, INTEGRAL =      0.11 TIME LEFT: 172799.88
 STEP:   6 TIME =     0.04 SECS, INTEGRAL =      0.14 TIME LEFT: 172799.85
 STEP:   7 TIME =     0.03 SECS, INTEGRAL =      0.17 TIME LEFT: 172799.82
 STEP:   8 TIME =     0.02 SECS, INTEGRAL =      0.19 TIME LEFT: 172799.80
 STEP:   9 TIME =     0.02 SECS, INTEGRAL =      0.21 TIME LEFT: 172799.78
 STEP:  10 TIME =     0.02 SECS, INTEGRAL =      0.22 TIME LEFT: 172799.77
 STEP:  11 TIME =     0.03 SECS, INTEGRAL =      0.25 TIME LEFT: 172799.74
 STEP:  12 TIME =     0.02 SECS, INTEGRAL =      0.27 TIME LEFT: 172799.72
 STEP:  13 TIME =     0.02 SECS, INTEGRAL =      0.29 TIME LEFT: 172799.70
 STEP:  14 TIME =     0.02 SECS, INTEGRAL =      0.31 TIME LEFT: 172799.68
 STEP:  15 TIME =     0.02 SECS, INTEGRAL =      0.33 TIME LEFT: 172799.66
 STEP:  16 TIME =     0.02 SECS, INTEGRAL =      0.34 TIME LEFT: 172799.64
 STEP:  17 TIME =     0.02 SECS, INTEGRAL =      0.37 TIME LEFT: 172799.62
 STEP:  18 TIME =     0.02 SECS, INTEGRAL =      0.38 TIME LEFT: 172799.61
 STEP:  19 TIME =     0.02 SECS, INTEGRAL =      0.41 TIME LEFT: 172799.58
 STEP:  20 TIME =     0.02 SECS, INTEGRAL =      0.42 TIME LEFT: 172799.57
 STEP:  21 TIME =     0.02 SECS, INTEGRAL =      0.44 TIME LEFT: 172799.55
 STEP:  22 TIME =     0.02 SECS, INTEGRAL =      0.46 TIME LEFT: 172799.53
 STEP:  23 TIME =     0.02 SECS, INTEGRAL =      0.48 TIME LEFT: 172799.51
 STEP:  24 TIME =     0.02 SECS, INTEGRAL =      0.50 TIME LEFT: 172799.49
 STEP:  25 TIME =     0.02 SECS, INTEGRAL =      0.52 TIME LEFT: 172799.47
 STEP:  26 TIME =     0.02 SECS, INTEGRAL =      0.54 TIME LEFT: 172799.45
 STEP:  27 TIME =     0.03 SECS, INTEGRAL =      0.57 TIME LEFT: 172799.42
 STEP:  28 TIME =     0.02 SECS, INTEGRAL =      0.59 TIME LEFT: 172799.40
 STEP:  29 TIME =     0.03 SECS, INTEGRAL =      0.62 TIME LEFT: 172799.37
 STEP:  30 TIME =     0.02 SECS, INTEGRAL =      0.64 TIME LEFT: 172799.35
 STEP:  31 TIME =     0.02 SECS, INTEGRAL =      0.66 TIME LEFT: 172799.33
 STEP:  32 TIME =     0.03 SECS, INTEGRAL =      0.68 TIME LEFT: 172799.30
 STEP:  33 TIME =     0.02 SECS, INTEGRAL =      0.70 TIME LEFT: 172799.29
 STEP:  34 TIME =     0.02 SECS, INTEGRAL =      0.72 TIME LEFT: 172799.27
 STEP:  35 TIME =     0.02 SECS, INTEGRAL =      0.74 TIME LEFT: 172799.25
 STEP:  36 TIME =     0.02 SECS, INTEGRAL =      0.75 TIME LEFT: 172799.23
 STEP:  37 TIME =     0.02 SECS, INTEGRAL =      0.77 TIME LEFT: 172799.22
 STEP:  38 TIME =     0.02 SECS, INTEGRAL =      0.79 TIME LEFT: 172799.20
 STEP:  39 TIME =     0.02 SECS, INTEGRAL =      0.81 TIME LEFT: 172799.18
 STEP:  40 TIME =     0.02 SECS, INTEGRAL =      0.83 TIME LEFT: 172799.16
 STEP:  41 TIME =     0.02 SECS, INTEGRAL =      0.84 TIME LEFT: 172799.14
 STEP:  42 TIME =     0.02 SECS, INTEGRAL =      0.86 TIME LEFT: 172799.13
 STEP:  43 TIME =     0.02 SECS, INTEGRAL =      0.88 TIME LEFT: 172799.11
 STEP:  44 TIME =     0.02 SECS, INTEGRAL =      0.89 TIME LEFT: 172799.10
 STEP:  45 TIME =     0.02 SECS, INTEGRAL =      0.91 TIME LEFT: 172799.08
 STEP:  46 TIME =     0.03 SECS, INTEGRAL =      0.93 TIME LEFT: 172799.05
 STEP:  47 TIME =     0.02 SECS, INTEGRAL =      0.95 TIME LEFT: 172799.04
 STEP:  48 TIME =     0.02 SECS, INTEGRAL =      0.96 TIME LEFT: 172799.02
 STEP:  49 TIME =     0.02 SECS, INTEGRAL =      0.99 TIME LEFT: 172799.00
 STEP:  50 TIME =     0.02 SECS, INTEGRAL =      1.01 TIME LEFT: 172798.98
 STEP:  51 TIME =     0.02 SECS, INTEGRAL =      1.03 TIME LEFT: 172798.96
 STEP:  52 TIME =     0.03 SECS, INTEGRAL =      1.06 TIME LEFT: 172798.93
 STEP:  53 TIME =     0.02 SECS, INTEGRAL =      1.08 TIME LEFT: 172798.91
 STEP:  54 TIME =     0.03 SECS, INTEGRAL =      1.11 TIME LEFT: 172798.88
 STEP:  55 TIME =     0.02 SECS, INTEGRAL =      1.12 TIME LEFT: 172798.87
 STEP:  56 TIME =     0.02 SECS, INTEGRAL =      1.14 TIME LEFT: 172798.85
 STEP:  57 TIME =     0.02 SECS, INTEGRAL =      1.16 TIME LEFT: 172798.83
 STEP:  58 TIME =     0.02 SECS, INTEGRAL =      1.17 TIME LEFT: 172798.82
 STEP:  59 TIME =     0.02 SECS, INTEGRAL =      1.19 TIME LEFT: 172798.80
 STEP:  60 TIME =     0.02 SECS, INTEGRAL =      1.20 TIME LEFT: 172798.79
 STEP:  61 TIME =     0.03 SECS, INTEGRAL =      1.23 TIME LEFT: 172798.76
 STEP:  62 TIME =     0.03 SECS, INTEGRAL =      1.26 TIME LEFT: 172798.73
 STEP:  63 TIME =     0.03 SECS, INTEGRAL =      1.29 TIME LEFT: 172798.70
 STEP:  64 TIME =     0.03 SECS, INTEGRAL =      1.32 TIME LEFT: 172798.66
 STEP:  65 TIME =     0.02 SECS, INTEGRAL =      1.35 TIME LEFT: 172798.64
 STEP:  66 TIME =     0.03 SECS, INTEGRAL =      1.38 TIME LEFT: 172798.61
 STEP:  67 TIME =     0.03 SECS, INTEGRAL =      1.41 TIME LEFT: 172798.58
 STEP:  68 TIME =     0.02 SECS, INTEGRAL =      1.43 TIME LEFT: 172798.56
 STEP:  69 TIME =     0.02 SECS, INTEGRAL =      1.45 TIME LEFT: 172798.54
 STEP:  70 TIME =     0.02 SECS, INTEGRAL =      1.46 TIME LEFT: 172798.52
 STEP:  71 TIME =     0.02 SECS, INTEGRAL =      1.48 TIME LEFT: 172798.50
 STEP:  72 TIME =     0.02 SECS, INTEGRAL =      1.50 TIME LEFT: 172798.49
 STEP:  73 TIME =     0.02 SECS, INTEGRAL =      1.52 TIME LEFT: 172798.47
 STEP:  74 TIME =     0.02 SECS, INTEGRAL =      1.54 TIME LEFT: 172798.45
 STEP:  75 TIME =     0.02 SECS, INTEGRAL =      1.56 TIME LEFT: 172798.43

(To convert to Hartree/Bohr^2, multiply by (10^(-21) x N x a0^2)/(4.184 x 627.51) =  0.0642)


           FORCE MATRIX IN MILLIDYNES/ANGSTROM


                  C  1       H  2       C  3       H  4       C  5       H  6
 ------------------------------------------------------------------------------
     C    1  14.267254
     H    2   3.379123   4.269449
     C    3   6.838128   0.760514  15.008919
     H    4   0.780552   0.085738   3.429751   4.353504
     C    5   2.159560   0.177125   5.545866   0.773113  15.094376
     H    6   0.106749   0.006552   0.757177   0.033055   3.429493   4.328465
     C    7   1.355860   0.148900   2.283941   0.093512   6.918441   0.774018
     H    8   0.162108   0.027399   0.209017   0.005918   0.800455   0.083325
     H    9   0.025835   0.006138   0.099336   0.007524   0.754523   0.046564
     C   10   3.900425   0.669557   0.866581   0.054994   0.127776   0.013625
     H   11   0.727283   0.019452   0.040186   0.003082   0.017043   0.002099
     H   12   0.728361   0.039911   0.036535   0.018791   0.026771   0.002628
     H   13   0.732535   0.016477   0.029044   0.013279   0.018204   0.002065
     O   14   0.123039   0.008294   0.075345   0.018718   0.062057   0.020520
     C   15   0.235809   0.023539   0.185148   0.033344   0.190956   0.030404
     C   16   0.414558   0.033924   0.242554   0.033511   0.255917   0.042368
     C   17   1.563786   0.158720   1.688245   0.040947   2.038995   0.075351
     O   18   0.038086   0.007456   0.042711   0.009502   0.052833   0.017300
     C   19   1.768677   0.425861   1.826697   0.044409   1.624481   0.058867
     O   20   0.091644   0.008534   0.097543   0.017916   0.081326   0.011323
     H   21   0.401071   0.030763   0.176168   0.005769   0.169230   0.007215
     C   22   0.155825   0.019021   0.168346   0.009744   0.180841   0.012502
     H   23   0.014074   0.002553   0.013928   0.001955   0.014796   0.002452
     H   24   0.023148   0.002324   0.021287   0.000828   0.023446   0.001218
     H   25   0.012541   0.005006   0.014590   0.002045   0.014213   0.002162


                  C  7       H  8       H  9       C 10       H 11       H 12
 ------------------------------------------------------------------------------
     C    7  13.090443
     H    8   3.478116   4.244497
     H    9   3.514962   0.445860   4.259045
     C   10   0.059999   0.010861   0.009375  11.622524
     H   11   0.013951   0.002577   0.001623   3.419437   4.212412
     H   12   0.026716   0.003458   0.002180   3.334746   0.450157   4.132028
     H   13   0.009063   0.002161   0.001162   3.349360   0.458575   0.454279
     O   14   0.105633   0.008361   0.016738   0.053899   0.012574   0.031978
     C   15   0.382835   0.029675   0.075090   0.048272   0.010389   0.025103
     C   16   0.375983   0.040111   0.021877   0.137097   0.030089   0.104313
     C   17   2.238974   0.502999   0.196552   0.048396   0.012376   0.025266
     O   18   0.058606   0.008591   0.031488   0.021510   0.005262   0.008773
     C   19   1.755364   0.181612   0.036550   0.197175   0.014522   0.035556
     O   20   0.094254   0.013799   0.007411   0.095722   0.015150   0.053094
     H   21   0.174265   0.017607   0.004953   0.022042   0.019216   0.007808
     C   22   0.495129   0.031757   0.015310   0.019679   0.005534   0.006022
     H   23   0.024459   0.014108   0.022707   0.004231   0.001142   0.001273
     H   24   0.039786   0.003689   0.002445   0.003985   0.001244   0.001220
     H   25   0.015978   0.024862   0.005612   0.006497   0.001827   0.001423


                  H 13       O 14       C 15       C 16       C 17       O 18
 ------------------------------------------------------------------------------
     H   13   4.167138
     O   14   0.006254   8.959300
     C   15   0.008123   3.567507  18.546735
     C   16   0.016452   3.199180   2.376379  18.778954
     C   17   0.007997   1.145834   2.807303   1.504203  14.555493
     O   18   0.003963   1.852401  12.763876   0.441564   1.017748  14.782618
     C   19   0.016406   1.247435   1.240615   3.466577   6.158321   0.122285
     O   20   0.009043   1.829634   0.422797  12.661120   0.142792   0.127628
     H   21   0.003536   0.058225   0.089570   0.609352   0.745475   0.014922
     C   22   0.003476   0.117397   0.514655   0.125644   4.039747   0.054311
     H   23   0.000923   0.026007   0.065422   0.026590   0.715172   0.028861
     H   24   0.000774   0.021255   0.045732   0.025171   0.741934   0.016046
     H   25   0.001250   0.015322   0.036101   0.019811   0.728216   0.006320


                  C 19       O 20       H 21       C 22       H 23       H 24
 ------------------------------------------------------------------------------
     C   19  13.482219
     O   20   1.133179  14.700931
     H   21   3.534571   0.035898   4.361466
     C   22   0.739836   0.034195   0.049064  11.654803
     H   23   0.049415   0.005616   0.003467   3.382409   4.184558
     H   24   0.037776   0.009119   0.011408   3.328942   0.452331   4.144454
     H   25   0.020946   0.005624   0.011297   3.402283   0.453684   0.454575


                  H 25
 ------------------
     H   25   4.205361


          HEAT OF FORMATION =     -61.137439 KCALS/MOLE

          ZERO POINT ENERGY     117.484 KCAL/MOL

         NOTE: SYSTEM IS NOT A GROUND STATE, THEREFORE ZERO POINT
         ENERGY IS NOT MEANINGFULL. ZERO POINT ENERGY PRINTED
         DOES NOT INCLUDE THE  1 IMAGINARY FREQUENCIES


           NORMAL COORDINATE ANALYSIS (Total motion = 1 Angstrom)


   Root No.       1         2         3         4         5         6         7         8

                 1 A       2 A       3 A       4 A       5 A       6 A       7 A       8 A   

                -724.1      56.3     105.6     122.3     127.7     145.0     163.5     173.1
  
           1   -0.0150    0.0225   -0.0117   -0.0017    0.0176   -0.0099    0.0023    0.0071
           2    0.0187   -0.0087   -0.0094   -0.0133    0.0079   -0.0128   -0.0020    0.0133
           3   -0.0793    0.0033    0.0039   -0.0194   -0.0091   -0.0078    0.0063    0.0320
           4   -0.0167    0.0226   -0.0118   -0.0021    0.0177   -0.0102    0.0023    0.0077
           5   -0.0100    0.0150   -0.0160   -0.0288    0.0027   -0.0142   -0.0054    0.0148
           6    0.0507    0.0131   -0.0076   -0.0081    0.0065   -0.0085    0.0047    0.0065
           7    0.0013   -0.0025   -0.0063    0.0144    0.0231   -0.0104    0.0063    0.0121
           8   -0.0273   -0.0233   -0.0062   -0.0046    0.0105   -0.0136    0.0005    0.0178
           9   -0.0078   -0.0069    0.0006   -0.0318   -0.0314    0.0133    0.0012    0.0066
          10   -0.0121    0.0005   -0.0083    0.0168    0.0291   -0.0142    0.0065    0.0109
          11    0.0040   -0.0463   -0.0043    0.0066    0.0129   -0.0110    0.0020    0.0143
          12    0.0396   -0.0172    0.0062   -0.0406   -0.0515    0.0259    0.0003    0.0110
          13    0.0204   -0.0323   -0.0019    0.0232    0.0159   -0.0013    0.0072    0.0160
          14    0.0169   -0.0116   -0.0044   -0.0068    0.0123   -0.0182    0.0017    0.0280
          15    0.0109   -0.0032   -0.0077   -0.0353   -0.0270    0.0138   -0.0013   -0.0175
          16   -0.0307   -0.0526   -0.0001    0.0322    0.0144    0.0041    0.0067    0.0172
          17   -0.0240   -0.0270   -0.0025    0.0021    0.0128   -0.0155    0.0014    0.0310
          18    0.0364   -0.0056   -0.0119   -0.0521   -0.0405    0.0239   -0.0019   -0.0342
          19   -0.0004   -0.0358   -0.0013    0.0164    0.0060    0.0054    0.0069    0.0121
          20    0.0664    0.0159   -0.0031   -0.0151    0.0133   -0.0247    0.0027    0.0337
          21   -0.0777    0.0028   -0.0093   -0.0193   -0.0075    0.0011   -0.0023   -0.0163
          22   -0.0198   -0.0203   -0.0032    0.0141    0.0118   -0.0012    0.0055    0.0116
          23   -0.0409    0.0359   -0.0071   -0.0266    0.0128   -0.0273    0.0019    0.0213
          24    0.0632    0.0041   -0.0071   -0.0067    0.0061   -0.0094   -0.0031    0.0047
          25    0.0143   -0.0581    0.0009    0.0201   -0.0038    0.0150    0.0084    0.0085
          26    0.0336    0.0210   -0.0002   -0.0112    0.0112   -0.0226   -0.0006    0.0303
          27   -0.0398    0.0091   -0.0160   -0.0285    0.0024   -0.0081    0.0016   -0.0096
          28   -0.0023    0.0544   -0.0235   -0.0197    0.0182   -0.0119   -0.0027   -0.0009
          29   -0.0035   -0.0234   -0.0109   -0.0076    0.0072   -0.0078   -0.0022    0.0024
          30   -0.0134   -0.0017    0.0252   -0.0082   -0.0092   -0.0178    0.0138    0.0758
          31    0.0085    0.0873   -0.1161    0.0220   -0.0432    0.0003    0.0026    0.0319
          32    0.0109   -0.0095   -0.0159   -0.0103    0.0039   -0.0107   -0.0021    0.0119
          33    0.0049   -0.0253    0.1948   -0.1002    0.1034   -0.0518    0.0035    0.0389
          34    0.0031    0.0661   -0.0931    0.0228   -0.0308   -0.0013    0.0036    0.0279
          35    0.0019   -0.0583    0.0811   -0.0389    0.0640   -0.0221   -0.0038   -0.0127
          36   -0.0023    0.0159   -0.1131    0.0841   -0.1096    0.0048    0.0285    0.1398
          37   -0.0125    0.0339    0.1429   -0.1294    0.1399   -0.0416   -0.0202   -0.0758
          38   -0.0357   -0.0125   -0.1051    0.0341   -0.0497    0.0159   -0.0008   -0.0027
          39   -0.0118    0.0001    0.0107    0.0023   -0.0203   -0.0156    0.0158    0.0847
          40   -0.0055    0.0017    0.0027   -0.0035   -0.0032    0.0335   -0.0031   -0.0053
          41    0.0039    0.0161    0.0006   -0.0044   -0.0171   -0.0819   -0.0004   -0.0184
          42   -0.0013    0.0097   -0.0091    0.0208    0.0457    0.1598   -0.0015    0.0013
          43   -0.0030    0.0116    0.0019   -0.0076   -0.0059    0.0035   -0.0020   -0.0029
          44    0.0014   -0.0009   -0.0029    0.0008   -0.0035   -0.0037   -0.0023   -0.0126
          45    0.0011    0.0148    0.0105    0.0207    0.0073    0.0241   -0.0013   -0.0045
          46   -0.0064   -0.0159    0.0083    0.0011   -0.0144    0.0109   -0.0039   -0.0087
          47    0.0024    0.0209    0.0053    0.0049   -0.0063   -0.0033   -0.0005   -0.0076
          48    0.0009   -0.0037   -0.0163    0.0044    0.0224    0.0086   -0.0006   -0.0089
          49   -0.0074   -0.0031    0.0058   -0.0061   -0.0142    0.0055   -0.0021   -0.0047
          50   -0.0733   -0.0043    0.0089    0.0194   -0.0002    0.0076   -0.0034   -0.0097
          51    0.0840   -0.0019    0.0018   -0.0047   -0.0096    0.0073    0.0005   -0.0023
          52    0.0014    0.0274    0.0010   -0.0057   -0.0019   -0.0195   -0.0002   -0.0143
          53    0.0010   -0.0115   -0.0182   -0.0179    0.0026    0.0584   -0.0016   -0.0128
          54   -0.0022    0.0329    0.0378    0.0538   -0.0040   -0.0854   -0.0027   -0.0046
          55    0.0169   -0.0147    0.0123   -0.0009   -0.0198    0.0102   -0.0026   -0.0046
          56   -0.0110    0.0017    0.0056    0.0151    0.0037    0.0035   -0.0027   -0.0050
          57    0.0874   -0.0013    0.0021   -0.0015   -0.0102    0.0091    0.0014   -0.0092
          58   -0.0003   -0.0270    0.0076    0.0035   -0.0135   -0.0159   -0.0052   -0.0069
          59   -0.0001    0.0385    0.0127    0.0023   -0.0117    0.0639    0.0015   -0.0069
          60   -0.0016   -0.0179   -0.0409    0.0022    0.0415   -0.1248   -0.0026   -0.0234
          61   -0.0131   -0.0260    0.0174    0.0038   -0.0211    0.0140   -0.0034   -0.0036
          62    0.0053   -0.0059    0.0075    0.0190    0.0031    0.0087   -0.0038   -0.0082
          63   -0.0795    0.0069    0.0072   -0.0079   -0.0141   -0.0030    0.0040    0.0011
          64    0.0058    0.0062    0.0058   -0.0090   -0.0094    0.0030    0.0004    0.0047
          65    0.0042   -0.0127    0.0223    0.0297   -0.0121    0.0211    0.0076   -0.0142
          66   -0.0021   -0.0267    0.0001    0.0042   -0.0207    0.0148   -0.0093   -0.0308
          67   -0.0130    0.0147   -0.0033   -0.0146   -0.0004   -0.0074   -0.1063    0.0296
          68    0.0135   -0.0146    0.0260    0.0329   -0.0156    0.0248    0.0011   -0.0143
          69   -0.0244   -0.0309   -0.0042   -0.0036   -0.0173    0.0128    0.2316   -0.0775
          70    0.0437    0.0215    0.0112   -0.0145   -0.0049    0.0022    0.0774    0.0138
          71    0.0190   -0.0148    0.0275    0.0406   -0.0186    0.0244   -0.2224    0.0229
          72    0.0076   -0.0293    0.0023    0.0105   -0.0246    0.0165   -0.1404   -0.0116
          73    0.0007   -0.0086    0.0093   -0.0020   -0.0182    0.0111    0.0360   -0.0176
          74    0.0081   -0.0151    0.0261    0.0255   -0.0136    0.0259    0.2484   -0.0558
          75   -0.0114   -0.0411    0.0014    0.0150   -0.0293    0.0204   -0.1363   -0.0270


   Root No.       9        10        11        12        13        14        15        16

                 9 A      10 A      11 A      12 A      13 A      14 A      15 A      16 A   

                 211.2     239.6     261.7     297.5     311.7     368.6     398.2     437.6
  
           1   -0.0021   -0.0139    0.0127    0.0218   -0.0126   -0.0087   -0.0347    0.0438
           2    0.0065    0.0218   -0.0072   -0.0280   -0.0076   -0.0023   -0.0089    0.0078
           3    0.0137   -0.0116    0.0239   -0.0002    0.0660    0.0006   -0.0171   -0.0130
           4   -0.0006   -0.0121    0.0118    0.0198   -0.0116   -0.0081   -0.0317    0.0402
           5    0.0256    0.0493   -0.0220   -0.0390   -0.0069   -0.0105    0.0074    0.0155
           6   -0.0072   -0.0338    0.0313   -0.0413    0.0792    0.0342   -0.0466   -0.0650
           7   -0.0168   -0.0293    0.0199    0.0196   -0.0129    0.0045   -0.0138   -0.0001
           8   -0.0018    0.0124   -0.0011   -0.0297   -0.0044    0.0039    0.0026   -0.0184
           9    0.0517   -0.0027    0.0011    0.0399    0.0114   -0.0018    0.0278    0.0222
          10   -0.0301   -0.0349    0.0263    0.0029   -0.0063    0.0101   -0.0316   -0.0170
          11   -0.0050    0.0080   -0.0032   -0.0492   -0.0120    0.0186    0.0229   -0.0614
          12    0.1017    0.0219   -0.0231    0.0886   -0.0097   -0.0193    0.0867    0.0790
          13    0.0168   -0.0084    0.0013    0.0020   -0.0033    0.0075    0.0342   -0.0092
          14   -0.0023    0.0125    0.0035   -0.0064    0.0172   -0.0051    0.0095    0.0016
          15    0.0219   -0.0186    0.0040    0.0077   -0.0516    0.0199   -0.0275   -0.0233
          16    0.0340    0.0067   -0.0088   -0.0318    0.0206    0.0059    0.0614    0.0116
          17    0.0065    0.0238   -0.0033   -0.0313    0.0432   -0.0084    0.0431    0.0203
          18    0.0485   -0.0215   -0.0015    0.0135   -0.1255    0.0372   -0.1090   -0.0746
          19    0.0427   -0.0035   -0.0035    0.0086   -0.0138    0.0092    0.0026   -0.0199
          20   -0.0222   -0.0055    0.0161    0.0580    0.0093   -0.0076    0.0165   -0.0327
          21   -0.0383   -0.0286    0.0116   -0.0207   -0.0260    0.0138    0.0480    0.0038
          22    0.0117   -0.0159    0.0067    0.0267   -0.0179    0.0066    0.0315   -0.0359
          23   -0.0539   -0.0288    0.0297    0.0716   -0.0198   -0.0065    0.0282   -0.0695
          24   -0.0532   -0.0169    0.0122    0.0013    0.0125    0.0051    0.0911    0.0260
          25    0.0882    0.0166   -0.0216   -0.0224   -0.0086    0.0139   -0.0401    0.0041
          26   -0.0260   -0.0096    0.0157    0.0706    0.0160   -0.0103    0.0319   -0.0334
          27   -0.0637   -0.0363    0.0252   -0.0220   -0.0426    0.0163    0.0542   -0.0134
          28    0.0306    0.0250   -0.0122   -0.0236    0.0008    0.0020    0.0048   -0.0048
          29    0.0008   -0.0070    0.0133   -0.0066    0.0158   -0.0076   -0.0337    0.0286
          30   -0.0162    0.0213   -0.0052   -0.0110   -0.0294    0.0035   -0.0124    0.0073
          31    0.0413    0.0570   -0.0329   -0.0550   -0.0101    0.0117    0.0393   -0.0422
          32    0.0082    0.0201   -0.0063   -0.0304   -0.0045   -0.0008   -0.0088    0.0050
          33   -0.0139    0.0423   -0.0255   -0.0235   -0.0726    0.0064   -0.0012    0.0058
          34    0.0225    0.0305   -0.0161   -0.0265   -0.0137    0.0047    0.0073   -0.0053
          35   -0.0243   -0.0302    0.0256    0.0237   -0.0124   -0.0182   -0.0695    0.0761
          36   -0.0439    0.0267   -0.0112   -0.0100   -0.0739    0.0076   -0.0199    0.0231
          37    0.0622    0.0243   -0.0107   -0.0280    0.0418   -0.0018    0.0191   -0.0261
          38    0.0139   -0.0410    0.0434    0.0123    0.0968   -0.0128   -0.0484    0.0257
          39   -0.0206    0.0229   -0.0068   -0.0113   -0.0385    0.0046   -0.0133    0.0097
          40   -0.0095    0.0065   -0.0019    0.0018    0.0020   -0.0596   -0.0019   -0.0085
          41   -0.0004   -0.0052   -0.0070   -0.0028    0.0006    0.0277    0.0005    0.0049
          42    0.0012    0.0082   -0.0042    0.0085   -0.0008    0.0254   -0.0023    0.0009
          43   -0.0082    0.0066    0.0035    0.0017    0.0065   -0.0341   -0.0013    0.0017
          44   -0.0001   -0.0055   -0.0208    0.0059    0.0021    0.0213   -0.0054   -0.0099
          45   -0.0032   -0.0060   -0.0143   -0.0067    0.0014    0.0084    0.0068    0.0220
          46   -0.0124    0.0007   -0.0118   -0.0022    0.0020   -0.0254   -0.0015   -0.0089
          47   -0.0001    0.0003   -0.0147    0.0097   -0.0018    0.0183    0.0011    0.0147
          48    0.0021   -0.0070    0.0016   -0.0099    0.0104    0.0132   -0.0063   -0.0130
          49   -0.0088    0.0005   -0.0026   -0.0049    0.0042   -0.0435    0.0002   -0.0005
          50    0.0053   -0.0076   -0.0241    0.0103   -0.0019    0.0220   -0.0040   -0.0162
          51   -0.0123   -0.0075   -0.0091   -0.0154    0.0128    0.0019    0.0075    0.0293
          52   -0.0093    0.0307    0.0458    0.0029    0.0003    0.1074    0.0033    0.0017
          53   -0.0081   -0.0079   -0.0202   -0.0007    0.0006    0.0239    0.0017    0.0066
          54    0.0107   -0.0031   -0.0179    0.0048    0.0040   -0.0043   -0.0058   -0.0078
          55   -0.0107   -0.0009   -0.0067   -0.0026    0.0053   -0.0349   -0.0023   -0.0071
          56    0.0010    0.0015   -0.0272    0.0166   -0.0078    0.0209    0.0043    0.0106
          57   -0.0022   -0.0228    0.0022   -0.0321    0.0217    0.0253   -0.0106   -0.0229
          58   -0.0141   -0.0002   -0.0268    0.0051    0.0105    0.0768   -0.0027    0.0057
          59    0.0016   -0.0012    0.0035   -0.0028   -0.0064   -0.0872   -0.0002   -0.0081
          60    0.0037    0.0049    0.0033    0.0046   -0.0120   -0.0637    0.0037    0.0038
          61   -0.0108   -0.0031   -0.0146   -0.0012    0.0055   -0.0403   -0.0024   -0.0191
          62   -0.0007    0.0021   -0.0345    0.0135   -0.0152    0.0173    0.0083    0.0072
          63    0.0052   -0.0331    0.0181   -0.0201    0.0518    0.0268   -0.0293   -0.0407
          64   -0.0049   -0.0238   -0.0140   -0.0182    0.0053   -0.0350    0.0069    0.0102
          65    0.0204   -0.0033    0.0654   -0.0181   -0.0160   -0.0085    0.0101    0.0064
          66   -0.0263    0.0540    0.0045    0.0192    0.0111   -0.0284   -0.0082   -0.0009
          67   -0.0094   -0.0455   -0.0761   -0.0064    0.0113   -0.0028   -0.0009   -0.0046
          68    0.0249   -0.0009    0.0932   -0.0260   -0.0199   -0.0186    0.0148    0.0151
          69   -0.0436    0.0836   -0.0334    0.0422    0.0219   -0.0306   -0.0190   -0.0207
          70    0.0086   -0.0676   -0.0002   -0.0550    0.0052   -0.0241    0.0259    0.0485
          71    0.0358   -0.0146    0.1186   -0.0342   -0.0298   -0.0168    0.0190    0.0190
          72   -0.0195    0.0527    0.0316    0.0147    0.0038   -0.0340   -0.0060    0.0011
          73   -0.0085    0.0152    0.0236   -0.0072    0.0010   -0.0660    0.0024    0.0010
          74    0.0152    0.0148    0.0780   -0.0207   -0.0115   -0.0270    0.0125    0.0148
          75   -0.0266    0.0851    0.0383    0.0332    0.0031   -0.0506   -0.0148   -0.0171


   Root No.      17        18        19        20        21        22        23        24

                17 A      18 A      19 A      20 A      21 A      22 A      23 A      24 A   

                 463.0     551.3     587.9     617.3     621.2     650.3     699.6     778.0
  
           1    0.0268    0.0052    0.0028   -0.0010   -0.0050    0.0021    0.0003   -0.0007
           2    0.0131    0.0049    0.0063   -0.0210   -0.0059   -0.0070    0.0019   -0.0031
           3   -0.0369   -0.0196   -0.0098   -0.0106    0.0125   -0.0110   -0.0152    0.0061
           4    0.0230    0.0040    0.0012    0.0000   -0.0034    0.0023   -0.0016   -0.0007
           5    0.0166    0.0063    0.0159   -0.0704   -0.0103   -0.0075   -0.0138   -0.0050
           6   -0.0356   -0.0095    0.0019   -0.0095   -0.0061   -0.0687    0.0446   -0.0447
           7   -0.0029   -0.0021   -0.0156    0.0525    0.0094    0.0159    0.0026    0.0105
           8   -0.0100   -0.0002   -0.0067    0.0193    0.0054    0.0121    0.0027    0.0091
           9    0.0239    0.0061   -0.0053    0.0208    0.0024   -0.0017    0.0082   -0.0038
          10   -0.0261   -0.0110   -0.0191    0.0530    0.0133    0.0029   -0.0052   -0.0247
          11   -0.0383   -0.0075   -0.0113    0.0114    0.0081   -0.0044   -0.0022   -0.0222
          12    0.0998    0.0346    0.0094   -0.0003   -0.0130    0.0344    0.0308    0.1094
          13    0.0014    0.0011    0.0016   -0.0296   -0.0031   -0.0092   -0.0019    0.0017
          14    0.0076    0.0023   -0.0183    0.0694    0.0134    0.0191    0.0127    0.0213
          15   -0.0225   -0.0057   -0.0073    0.0147    0.0024   -0.0070   -0.0092   -0.0280
          16    0.0171    0.0043   -0.0019   -0.0217   -0.0025   -0.0247   -0.0050   -0.0422
          17    0.0248    0.0060   -0.0205    0.0714    0.0125    0.0009    0.0081   -0.0298
          18   -0.0708   -0.0149    0.0075   -0.0339    0.0011    0.0347    0.0063    0.1165
          19   -0.0112   -0.0040    0.0070   -0.0240   -0.0030    0.0064    0.0016    0.0004
          20   -0.0090   -0.0014    0.0068   -0.0098   -0.0021    0.0131    0.0008   -0.0148
          21    0.0153    0.0116   -0.0061    0.0012   -0.0030   -0.0236   -0.0068   -0.0158
          22   -0.0022    0.0108    0.0331   -0.1121   -0.0161   -0.0010    0.0130    0.0384
          23    0.0010    0.0278    0.0519   -0.1141   -0.0145    0.0379    0.0500    0.1145
          24    0.0143   -0.0050   -0.0189   -0.0393   -0.0125   -0.0775   -0.0626   -0.1280
          25   -0.0153   -0.0211   -0.0277    0.1066    0.0108    0.0128   -0.0122   -0.0758
          26   -0.0015   -0.0039    0.0257   -0.0484   -0.0217    0.0027   -0.0104   -0.1027
          27    0.0081    0.0290   -0.0110   -0.0321    0.0192   -0.0122    0.0246    0.1893
          28    0.0000    0.0014    0.0006   -0.0066   -0.0003   -0.0024   -0.0005   -0.0029
          29    0.0199    0.0032    0.0096   -0.0379   -0.0081   -0.0159    0.0004   -0.0071
          30    0.0049   -0.0001   -0.0003   -0.0115   -0.0021   -0.0077   -0.0024   -0.0002
          31   -0.0158   -0.0014   -0.0037    0.0075    0.0015   -0.0001    0.0060    0.0020
          32    0.0145    0.0066    0.0080   -0.0271   -0.0083   -0.0118    0.0077   -0.0080
          33    0.0202    0.0174    0.0032   -0.0037   -0.0067   -0.0000    0.0109   -0.0140
          34    0.0043    0.0045    0.0008   -0.0011   -0.0022    0.0002    0.0036   -0.0053
          35    0.0554    0.0164    0.0175   -0.0473   -0.0158   -0.0119    0.0022   -0.0226
          36    0.0300    0.0150    0.0048   -0.0060   -0.0108   -0.0011    0.0094   -0.0165
          37   -0.0280   -0.0096   -0.0062   -0.0058    0.0133   -0.0046   -0.0119    0.0132
          38   -0.0112   -0.0224    0.0033   -0.0527    0.0043   -0.0272   -0.0226    0.0156
          39    0.0095    0.0032    0.0003   -0.0091   -0.0041   -0.0058    0.0006   -0.0044
          40    0.0026    0.0076   -0.0536   -0.0026   -0.0851   -0.0102    0.0072   -0.0068
          41   -0.0051    0.0332   -0.0114   -0.0067    0.0299    0.0331    0.0018    0.0000
          42   -0.0055    0.0239    0.0050    0.0035    0.0264   -0.0456   -0.0008    0.0052
          43   -0.0191    0.0577   -0.0244   -0.0019   -0.0624    0.0293    0.0179   -0.0134
          44    0.0178    0.0058   -0.0344    0.0047   -0.0684   -0.0546   -0.0527    0.0142
          45   -0.0281   -0.0460   -0.0211   -0.0174   -0.0085    0.1061    0.0838   -0.0065
          46    0.0220   -0.0405   -0.0261   -0.0071    0.0781    0.0055   -0.0127    0.0014
          47   -0.0356    0.0498    0.0009    0.0008    0.0678   -0.0547    0.0400   -0.0036
          48    0.0310    0.0488    0.0079   -0.0056    0.0374    0.1174   -0.0820   -0.0056
          49   -0.0122    0.0300    0.0499    0.0079   -0.0124    0.0050    0.0033    0.0026
          50    0.0262   -0.0333    0.0485    0.0102   -0.0293    0.0095    0.0234   -0.0113
          51   -0.0359   -0.0471   -0.0015   -0.0012   -0.0086   -0.0144   -0.0468    0.0101
          52    0.0130   -0.0474    0.0163    0.0032   -0.0114   -0.0060   -0.0061    0.0020
          53   -0.0038   -0.0252   -0.0414   -0.0067   -0.0649    0.0192    0.0064    0.0094
          54    0.0105    0.0060   -0.0259    0.0002   -0.0390   -0.0222   -0.0228    0.0090
          55    0.0168   -0.0404   -0.0016   -0.0004    0.0483   -0.0155    0.0041    0.0030
          56   -0.0266   -0.0211    0.0553    0.0103   -0.0315    0.0047   -0.0238   -0.0091
          57    0.0524    0.0189    0.0305    0.0064   -0.0238   -0.0174    0.0609   -0.0016
          58   -0.0111    0.0311   -0.0269   -0.0068    0.0853   -0.0117    0.0064   -0.0014
          59    0.0159   -0.0244   -0.0048   -0.0039    0.0953    0.0004   -0.0097   -0.0014
          60   -0.0080   -0.0229    0.0029    0.0016    0.0259   -0.0340    0.0205    0.0005
          61    0.0445   -0.1250   -0.0019    0.0005    0.0090    0.0089   -0.0163   -0.0008
          62   -0.0076   -0.0636    0.0545    0.0089   -0.0460    0.0316   -0.0500   -0.0143
          63    0.0488    0.0259    0.0357    0.0164   -0.0427   -0.0903    0.1621    0.0099
          64   -0.0212    0.0141    0.0755    0.0131   -0.0294    0.0012   -0.0158    0.0101
          65   -0.0102    0.0080    0.0017    0.0006   -0.0119    0.0021    0.0019   -0.0014
          66   -0.0104    0.0082    0.0270    0.0046   -0.0159    0.0064   -0.0091    0.0076
          67    0.0073   -0.0371    0.1174    0.0225   -0.0384   -0.0014   -0.0017    0.0040
          68   -0.0251    0.0240   -0.0184   -0.0039   -0.0073    0.0016   -0.0088    0.0028
          69    0.0161    0.0154    0.0470    0.0088   -0.0220    0.0145    0.0230   -0.0064
          70   -0.0637   -0.0212    0.0390    0.0043   -0.0208   -0.0276   -0.0867    0.0339
          71   -0.0328    0.0238   -0.0237   -0.0041   -0.0042    0.0011   -0.0147    0.0094
          72   -0.0173    0.0204    0.0151    0.0027   -0.0114    0.0087   -0.0081    0.0092
          73   -0.0209    0.0714    0.0591    0.0100   -0.0274    0.0180    0.0107    0.0030
          74   -0.0248    0.0326   -0.0181   -0.0036   -0.0120    0.0033   -0.0081    0.0041
          75   -0.0002    0.0571    0.0241    0.0045   -0.0160    0.0265    0.0290   -0.0045


   Root No.      25        26        27        28        29        30        31        32

                25 A      26 A      27 A      28 A      29 A      30 A      31 A      32 A   

                 849.5     904.9     915.4     964.3     981.4    1014.7    1016.7    1032.6
  
           1   -0.0037    0.0019   -0.0063    0.0038   -0.0021    0.0026   -0.0074   -0.0038
           2   -0.0000   -0.0002   -0.0001   -0.0018    0.0022   -0.0004    0.0002   -0.0006
           3    0.0061    0.0007    0.0104    0.0004   -0.0016    0.0046   -0.0004    0.0065
           4   -0.0033    0.0011   -0.0044    0.0038   -0.0021    0.0019   -0.0045   -0.0032
           5   -0.0143    0.0187   -0.0112    0.0338   -0.0447    0.0318   -0.0646   -0.0109
           6    0.0465   -0.1406    0.0040   -0.1538    0.1705   -0.0570   -0.0506    0.0629
           7    0.0048    0.0032    0.0110   -0.0003    0.0015   -0.0097    0.0284   -0.0026
           8   -0.0045    0.0146   -0.0015    0.0007   -0.0009   -0.0027   -0.0075   -0.0066
           9   -0.0040   -0.0269   -0.0234    0.0048    0.0028    0.0271    0.0152   -0.0162
          10   -0.0137   -0.0351   -0.0330    0.0249   -0.0153    0.0382    0.0374   -0.0271
          11   -0.0128   -0.0180   -0.0270    0.0162   -0.0133    0.0359   -0.0170   -0.0236
          12    0.0557    0.0999    0.1219   -0.0778    0.0578   -0.1290   -0.0316    0.0662
          13    0.0073   -0.0015    0.0073   -0.0058    0.0051    0.0122   -0.0025    0.0025
          14    0.0045   -0.0035    0.0005   -0.0031    0.0061    0.0150   -0.0102   -0.0096
          15   -0.0091   -0.0030   -0.0048    0.0098   -0.0147   -0.0311    0.0006    0.0072
          16   -0.0206   -0.0188   -0.0361    0.0241   -0.0304   -0.0538   -0.0147   -0.0006
          17   -0.0253   -0.0216   -0.0404    0.0276   -0.0307   -0.0574   -0.0178   -0.0047
          18    0.0604    0.0537    0.0690   -0.0591    0.0802    0.1732   -0.0188   -0.0580
          19   -0.0059    0.0018   -0.0087    0.0038   -0.0041   -0.0054   -0.0067    0.0020
          20   -0.0128    0.0075    0.0005    0.0011   -0.0033   -0.0056   -0.0141    0.0167
          21    0.0041    0.0057    0.0111   -0.0059    0.0027    0.0022   -0.0113    0.0053
          22   -0.0039   -0.0095   -0.0281    0.0077    0.0006    0.0068    0.0279   -0.0491
          23   -0.0138   -0.0271   -0.0706    0.0251   -0.0230   -0.0489    0.0108   -0.0350
          24    0.0097    0.0343    0.0727   -0.0307    0.0451    0.1003    0.0360   -0.0405
          25   -0.0202    0.0289    0.0286   -0.0106   -0.0058   -0.0182   -0.0728    0.0703
          26   -0.0542    0.0548    0.0120   -0.0022    0.0186    0.0129    0.0167   -0.0503
          27    0.0848   -0.0944   -0.0370    0.0115   -0.0310   -0.0165   -0.0098    0.0582
          28    0.0005   -0.0049   -0.0011   -0.0037    0.0008    0.0039   -0.0292    0.0005
          29    0.0021   -0.0049    0.0027   -0.0042    0.0069   -0.0056    0.0391    0.0091
          30    0.0038   -0.0006    0.0160    0.0127   -0.0149   -0.0086    0.0007   -0.0093
          31    0.0002    0.0067    0.0036   -0.0038    0.0225   -0.0222    0.1757    0.0190
          32   -0.0014   -0.0010   -0.0081   -0.0183    0.0360   -0.0161    0.1710    0.0306
          33   -0.0078   -0.0118   -0.0315   -0.0368    0.0451    0.0052    0.0668    0.0311
          34   -0.0031   -0.0056   -0.0144   -0.0153    0.0164    0.0074   -0.0010    0.0110
          35   -0.0088   -0.0275   -0.0381   -0.0331    0.0255    0.0359   -0.1659    0.0124
          36   -0.0093   -0.0174   -0.0382   -0.0372    0.0365    0.0205   -0.0277    0.0223
          37    0.0130    0.0169    0.0475    0.0371   -0.0484   -0.0266    0.0600   -0.0248
          38    0.0235    0.0196    0.0814    0.0678   -0.0919   -0.0305   -0.0516   -0.0532
          39   -0.0002   -0.0058   -0.0001   -0.0021    0.0031   -0.0003   -0.0033    0.0016
          40    0.0349   -0.0011   -0.0023    0.0196    0.0144   -0.0138   -0.0066   -0.0152
          41   -0.0085   -0.0025    0.0057    0.0760    0.0305   -0.0000   -0.0041    0.0072
          42   -0.0113   -0.0007    0.0040    0.0381    0.0125    0.0028   -0.0013    0.0065
          43    0.0410    0.0094   -0.0066   -0.0118   -0.0177    0.0162    0.0077    0.0171
          44   -0.0244   -0.0016    0.0006   -0.0194   -0.0091    0.0034    0.0022    0.0031
          45   -0.0195   -0.0025    0.0033   -0.0101   -0.0025   -0.0006    0.0003   -0.0004
          46   -0.0085   -0.0041    0.0013   -0.0033    0.0110   -0.0098   -0.0045   -0.0091
          47    0.0157    0.0049   -0.0035   -0.0310   -0.0233    0.0064    0.0039    0.0025
          48    0.0126    0.0075   -0.0097   -0.0246   -0.0057    0.0017    0.0036    0.0009
          49   -0.0204   -0.0072    0.0064   -0.0026    0.0000   -0.0031   -0.0000   -0.0031
          50    0.0282    0.0052   -0.0024    0.0060   -0.0007    0.0014   -0.0005   -0.0027
          51    0.0291    0.0142   -0.0173    0.0086    0.0022   -0.0014   -0.0005   -0.0007
          52   -0.0028    0.0006   -0.0010   -0.0104   -0.0035   -0.0005    0.0002   -0.0015
          53   -0.0391   -0.0038    0.0035   -0.0189   -0.0076    0.0032    0.0020    0.0037
          54   -0.0217   -0.0021    0.0014   -0.0083   -0.0034    0.0018    0.0010    0.0021
          55   -0.0064    0.0035    0.0010    0.0207   -0.0088    0.0220    0.0085    0.0258
          56    0.0477   -0.0102    0.0008   -0.0097    0.0104   -0.0133    0.0008   -0.0192
          57    0.0181   -0.0051    0.0092    0.0078   -0.0192   -0.0037   -0.0022   -0.0176
          58    0.0052    0.0007   -0.0015   -0.0161   -0.0013   -0.0067   -0.0020   -0.0091
          59    0.0039   -0.0000   -0.0019   -0.0212   -0.0030   -0.0048   -0.0005   -0.0069
          60    0.0004   -0.0005    0.0006   -0.0060   -0.0029   -0.0006   -0.0001   -0.0014
          61    0.0303    0.0079   -0.0028    0.0961    0.0201    0.0365    0.0207    0.0328
          62    0.0819   -0.0449    0.0228    0.0390   -0.0014   -0.0015    0.0076   -0.0151
          63   -0.0535    0.1881   -0.1158   -0.0405    0.0933   -0.0133    0.0033   -0.0109
          64   -0.0474   -0.0036    0.0071   -0.0048    0.0042    0.0018   -0.0012    0.0013
          65    0.0093    0.0004   -0.0002    0.0020   -0.0081    0.0113   -0.0010    0.0238
          66   -0.0064    0.0104   -0.0124    0.0024    0.0005   -0.0038   -0.0030    0.0043
          67    0.0251    0.0095   -0.0086    0.0162   -0.0354    0.0501   -0.0063    0.1160
          68   -0.0160    0.0014   -0.0012   -0.0055    0.0107   -0.0143    0.0002   -0.0298
          69   -0.0034   -0.0198    0.0229    0.0024   -0.0121    0.0248    0.0010    0.0387
          70   -0.0237    0.0606   -0.0672    0.0086    0.0264   -0.0439   -0.0131   -0.0406
          71   -0.0226    0.0033   -0.0061   -0.0033    0.0186   -0.0239   -0.0021   -0.0402
          72   -0.0227    0.0005   -0.0029   -0.0019    0.0102   -0.0141   -0.0014   -0.0213
          73   -0.1112   -0.0460    0.0563   -0.0320    0.0205   -0.0084    0.0087   -0.0569
          74   -0.0282   -0.0014    0.0016   -0.0099    0.0147   -0.0186    0.0015   -0.0386
          75   -0.0601   -0.0405    0.0471   -0.0216    0.0056    0.0044    0.0075   -0.0248


   Root No.      33        34        35        36        37        38        39        40

                33 A      34 A      35 A      36 A      37 A      38 A      39 A      40 A   

                1036.9    1050.5    1056.8    1085.9    1133.2    1166.9    1213.6    1225.1
  
           1   -0.0009    0.0003   -0.0038   -0.0022   -0.0037    0.0586   -0.0023    0.0019
           2   -0.0014    0.0015   -0.0035    0.0030   -0.0019    0.0313    0.0045    0.0008
           3   -0.0041    0.0087    0.0007   -0.0385    0.0139    0.0086    0.0052    0.0121
           4   -0.0007   -0.0005   -0.0026   -0.0021   -0.0030    0.0437   -0.0016    0.0023
           5    0.0151    0.0005    0.0052   -0.0527    0.0162    0.0004    0.0068    0.0256
           6   -0.0449    0.0253   -0.0011    0.1431   -0.0519    0.0597    0.0058   -0.0525
           7   -0.0119    0.0057   -0.0052   -0.0015    0.0023   -0.0421    0.0043    0.0000
           8   -0.0139    0.0113   -0.0107   -0.0052   -0.0028    0.0020   -0.0012   -0.0016
           9    0.0012   -0.0112    0.0044    0.0133   -0.0074   -0.0128   -0.0005   -0.0013
          10    0.0046   -0.0165    0.0037    0.0087   -0.0017   -0.0236    0.0000    0.0028
          11    0.0060   -0.0031   -0.0057    0.0228   -0.0035   -0.1720    0.0354   -0.0084
          12   -0.0480    0.0614   -0.0271   -0.0225    0.0070   -0.0510    0.0161   -0.0112
          13    0.0092   -0.0073    0.0093    0.0015   -0.0029   -0.0061    0.0065    0.0005
          14   -0.0057    0.0017   -0.0033    0.0046   -0.0020    0.0177   -0.0024    0.0015
          15   -0.0016    0.0136   -0.0198    0.0000    0.0152   -0.0006   -0.0002    0.0014
          16   -0.0181    0.0383   -0.0493    0.0016    0.0036    0.0785   -0.0003   -0.0024
          17   -0.0245    0.0398   -0.0523    0.0037    0.0059    0.0722   -0.0081    0.0010
          18   -0.0173   -0.0254    0.0285    0.0055   -0.0152    0.0609   -0.0019   -0.0021
          19    0.0013   -0.0004   -0.0002   -0.0030    0.0038    0.0183   -0.0085   -0.0001
          20    0.0211   -0.0149    0.0147   -0.0047    0.0118    0.0089   -0.0073   -0.0010
          21    0.0036   -0.0073    0.0247   -0.0039   -0.0270    0.0080    0.0053    0.0003
          22   -0.0669    0.0438   -0.0581    0.0074   -0.0115    0.0255   -0.0091   -0.0007
          23   -0.0727    0.0304    0.0057   -0.0111   -0.1306    0.0011    0.0122   -0.0118
          24   -0.0155    0.0316   -0.1156    0.0335    0.1750    0.0396   -0.0321    0.0169
          25    0.0745   -0.0669    0.1140   -0.0259   -0.0510    0.0512   -0.0118   -0.0057
          26   -0.0862    0.0250   -0.0019   -0.0051   -0.0691   -0.0144    0.0123   -0.0043
          27    0.1162   -0.0170   -0.0408    0.0159    0.1466    0.0247   -0.0245    0.0103
          28   -0.0008    0.0050   -0.0007    0.0001    0.0039   -0.0466    0.0000   -0.0009
          29    0.0057   -0.0088    0.0111   -0.0019    0.0026   -0.0367   -0.0029   -0.0016
          30    0.0054   -0.0103   -0.0011    0.0338   -0.0073   -0.0104   -0.0008   -0.0026
          31    0.0073   -0.0285    0.0218   -0.0142   -0.0023    0.0283    0.0112    0.0183
          32    0.0072   -0.0223    0.0271   -0.0358    0.0043    0.0117    0.0007    0.0084
          33   -0.0056    0.0067    0.0157   -0.0596    0.0120   -0.0060   -0.0168   -0.0105
          34   -0.0032    0.0086    0.0032   -0.0261    0.0082   -0.0215   -0.0055   -0.0119
          35   -0.0105    0.0384   -0.0095   -0.0451    0.0252   -0.1365    0.0258    0.0154
          36   -0.0096    0.0225    0.0039   -0.0565    0.0162   -0.0279   -0.0078   -0.0211
          37    0.0164   -0.0321    0.0005    0.0773   -0.0214    0.0335   -0.0107   -0.0273
          38    0.0299   -0.0328   -0.0156    0.1475   -0.0313   -0.0368   -0.0258   -0.0382
          39   -0.0003   -0.0004    0.0006    0.0021    0.0009   -0.0118    0.0023    0.0033
          40   -0.0026   -0.0256   -0.0068   -0.0143    0.0061    0.0005    0.0197   -0.0614
          41   -0.0014   -0.0009   -0.0013    0.0009    0.0004   -0.0003    0.0049    0.0113
          42   -0.0014    0.0049    0.0013    0.0013   -0.0021   -0.0002   -0.0021    0.0165
          43    0.0033    0.0326    0.0079    0.0154   -0.0108   -0.0003   -0.0360    0.0742
          44   -0.0000    0.0054    0.0011    0.0020   -0.0030   -0.0001   -0.0024    0.0076
          45    0.0001   -0.0032    0.0007    0.0027    0.0067   -0.0001    0.0051   -0.0095
          46   -0.0009   -0.0116   -0.0021   -0.0017   -0.0013   -0.0024   -0.0294    0.0673
          47   -0.0028    0.0074    0.0041   -0.0025    0.0009    0.0016    0.0139   -0.0725
          48    0.0067   -0.0001   -0.0048    0.0053   -0.0002    0.0007    0.0211   -0.0430
          49    0.0021    0.0013    0.0022    0.0010    0.0003   -0.0002    0.0410    0.0492
          50   -0.0034    0.0019    0.0073   -0.0000    0.0123    0.0033    0.0084   -0.0150
          51    0.0069    0.0007   -0.0145   -0.0154   -0.0365   -0.0005    0.0076    0.0012
          52   -0.0002   -0.0017   -0.0003   -0.0011    0.0002    0.0001    0.0026   -0.0071
          53   -0.0004    0.0025    0.0011    0.0047    0.0022   -0.0001   -0.0001    0.0093
          54   -0.0004    0.0017    0.0003    0.0021   -0.0000   -0.0001   -0.0004    0.0068
          55    0.0054    0.0332    0.0045    0.0156   -0.0008    0.0056    0.0966   -0.0280
          56    0.0214    0.0038   -0.0053   -0.0007   -0.0006   -0.0018    0.0280    0.0444
          57   -0.0078    0.0017    0.0131   -0.0204    0.0067    0.0038   -0.0075    0.0189
          58   -0.0016   -0.0112   -0.0019   -0.0055    0.0011   -0.0008   -0.0225   -0.0030
          59    0.0004   -0.0066   -0.0014   -0.0024    0.0001   -0.0007   -0.0183    0.0096
          60   -0.0009   -0.0001    0.0009   -0.0012   -0.0001   -0.0001   -0.0059    0.0046
          61    0.0457    0.1349    0.0307    0.0163   -0.0280   -0.0152   -0.3007   -0.2127
          62    0.0122    0.0601    0.0298   -0.0170   -0.0089   -0.0049   -0.1643   -0.0652
          63    0.1315   -0.0137   -0.0869    0.0650   -0.0234   -0.0309   -0.0214    0.0202
          64   -0.0013   -0.0106   -0.0075   -0.0034    0.0023   -0.0012   -0.0355   -0.0426
          65   -0.0140   -0.0215   -0.0201    0.0005   -0.0083   -0.0023   -0.0120    0.0080
          66   -0.0226   -0.0093    0.0198    0.0149    0.0232   -0.0014   -0.0145   -0.0079
          67   -0.0809   -0.1072   -0.0760    0.0147   -0.0154   -0.0132   -0.0786   -0.0134
          68    0.0137    0.0234    0.0249    0.0002    0.0114    0.0027    0.0117   -0.0011
          69    0.0059   -0.0344   -0.0670   -0.0226   -0.0432   -0.0005   -0.0248    0.0077
          70   -0.0659    0.0118    0.1339    0.0637    0.1283    0.0091   -0.0084    0.0070
          71    0.0237    0.0308    0.0405    0.0007    0.0196    0.0069   -0.0021   -0.0138
          72    0.0106    0.0145    0.0232    0.0007    0.0101    0.0020   -0.0071   -0.0154
          73    0.0914    0.0485   -0.0315   -0.0480   -0.0411    0.0026   -0.0168   -0.0734
          74    0.0255    0.0336    0.0316   -0.0004    0.0118    0.0004   -0.0092   -0.0392
          75    0.0661    0.0250   -0.0474   -0.0422   -0.0480    0.0018   -0.0034   -0.0272


   Root No.      41        42        43        44        45        46        47        48

                41 A      42 A      43 A      44 A      45 A      46 A      47 A      48 A   

                1263.3    1270.8    1272.7    1275.6    1277.8    1296.6    1302.2    1326.1
  
           1   -0.0097    0.0040   -0.0129    0.0170   -0.0001    0.0030    0.0244   -0.0074
           2   -0.0064    0.0025   -0.0109    0.0228    0.0022    0.0023    0.0071   -0.0408
           3   -0.0009    0.0002   -0.0035    0.0050   -0.0017    0.0080    0.0065   -0.0081
           4   -0.0110    0.0038   -0.0114    0.0150    0.0002    0.0022    0.0205    0.0018
           5   -0.0947    0.0277   -0.0934    0.1031    0.0444    0.0543   -0.1515    0.3118
           6   -0.0252    0.0138   -0.0336    0.0352    0.0173   -0.0124   -0.0246    0.0628
           7   -0.0049    0.0018   -0.0050    0.0085    0.0037    0.0019   -0.0104    0.0192
           8    0.0006    0.0021   -0.0041    0.0070    0.0010   -0.0071    0.0048   -0.0254
           9   -0.0017    0.0013   -0.0034    0.0065    0.0015   -0.0025    0.0014   -0.0060
          10   -0.0050   -0.0005   -0.0002    0.0019    0.0022    0.0039   -0.0177    0.0127
          11   -0.0291    0.0319   -0.0845    0.1239    0.0107    0.0029    0.1951    0.0342
          12   -0.0072    0.0090   -0.0225    0.0305    0.0052   -0.0005    0.0344    0.0204
          13   -0.0012    0.0000   -0.0041    0.0087   -0.0024    0.0074    0.0091   -0.0039
          14    0.0013   -0.0031    0.0073   -0.0119    0.0008    0.0030   -0.0236    0.0016
          15   -0.0007    0.0001   -0.0007    0.0015    0.0003    0.0016   -0.0058   -0.0021
          16    0.0273   -0.0156    0.0517   -0.0908   -0.0499    0.0324    0.1389    0.1946
          17    0.0207   -0.0132    0.0439   -0.0772   -0.0321    0.0191    0.0709    0.1362
          18    0.0193   -0.0110    0.0376   -0.0654   -0.0317    0.0219    0.0825    0.1251
          19    0.0012   -0.0007    0.0036   -0.0066    0.0013   -0.0104   -0.0212   -0.0180
          20    0.0022   -0.0003    0.0019   -0.0045   -0.0028   -0.0038    0.0124    0.0060
          21    0.0014   -0.0026    0.0032   -0.0048   -0.0016    0.0042   -0.0036   -0.0016
          22   -0.0029   -0.0004    0.0102   -0.0169    0.0260   -0.0082   -0.0938   -0.0210
          23   -0.0003   -0.0052    0.0102   -0.0180    0.0175    0.0062   -0.0536    0.0074
          24   -0.0017    0.0059    0.0084   -0.0117    0.0172   -0.0078   -0.0635   -0.0145
          25   -0.0011   -0.0045    0.0102   -0.0242    0.0247   -0.0033   -0.0601    0.0124
          26    0.0033   -0.0015    0.0028   -0.0002   -0.0112    0.0110    0.0171   -0.0059
          27    0.0012    0.0016   -0.0016   -0.0015   -0.0025   -0.0260    0.0069   -0.0040
          28   -0.0146   -0.0062    0.0196   -0.0181   -0.0043   -0.0067   -0.0014   -0.0086
          29    0.0211   -0.0036    0.0120   -0.0175   -0.0020   -0.0046   -0.0076    0.0217
          30   -0.0042    0.0078   -0.0116   -0.0206   -0.0003    0.0010   -0.0025    0.0014
          31   -0.0520    0.0466   -0.0828   -0.0873   -0.0036    0.0294    0.0203   -0.0174
          32   -0.0622    0.0032   -0.0013   -0.0236   -0.0040    0.0066    0.0121    0.0100
          33   -0.1342   -0.0777    0.1533    0.0998   -0.0070   -0.0393    0.0123    0.0164
          34    0.1018   -0.0275    0.0474    0.0472    0.0012   -0.0139   -0.0025    0.0082
          35    0.0340    0.0411   -0.0643   -0.1212   -0.0072    0.0277   -0.0040   -0.0653
          36    0.2573   -0.0387    0.0560    0.0937    0.0085   -0.0139   -0.0143    0.0242
          37    0.2907    0.0088   -0.0376    0.0409    0.0144    0.0063   -0.0128    0.0286
          38   -0.0909   -0.0547    0.1115    0.0580   -0.0025   -0.0303    0.0012   -0.0077
          39   -0.0307    0.0049   -0.0049   -0.0192   -0.0022    0.0006    0.0013   -0.0052
          40   -0.0010   -0.0020   -0.0000   -0.0009    0.0008    0.0077   -0.0008   -0.0008
          41    0.0011   -0.0002    0.0004    0.0007   -0.0012   -0.0058   -0.0002    0.0008
          42    0.0007    0.0003    0.0002    0.0005   -0.0007   -0.0046    0.0001    0.0003
          43    0.0008    0.0069   -0.0020    0.0001   -0.0007   -0.0361    0.0015    0.0042
          44    0.0000   -0.0005   -0.0000    0.0003   -0.0005    0.0016   -0.0001   -0.0004
          45   -0.0003   -0.0014    0.0004    0.0002    0.0003    0.0084   -0.0004   -0.0004
          46    0.0023    0.0014    0.0003    0.0018   -0.0025   -0.0123    0.0009    0.0019
          47   -0.0021   -0.0012   -0.0003   -0.0021    0.0033    0.0117   -0.0009   -0.0023
          48   -0.0017   -0.0011    0.0002   -0.0012    0.0016    0.0090   -0.0013   -0.0003
          49    0.0023   -0.0111    0.0073    0.0034   -0.0014    0.0726   -0.0017   -0.0108
          50   -0.0003    0.0098   -0.0031   -0.0016    0.0032   -0.0598    0.0022    0.0064
          51    0.0010    0.0036   -0.0004   -0.0020   -0.0013   -0.0286   -0.0014   -0.0005
          52   -0.0002   -0.0003   -0.0000   -0.0001    0.0000    0.0011   -0.0001   -0.0002
          53    0.0001   -0.0009    0.0010    0.0003    0.0005    0.0106    0.0001   -0.0009
          54    0.0001   -0.0006    0.0005    0.0002    0.0000    0.0058    0.0001   -0.0006
          55    0.0001    0.0012    0.0031   -0.0017   -0.0006   -0.0096   -0.0038    0.0014
          56    0.0013   -0.0061    0.0028    0.0017   -0.0043    0.0273   -0.0026   -0.0004
          57    0.0007   -0.0007    0.0002    0.0008   -0.0012    0.0052    0.0029   -0.0039
          58   -0.0009    0.0005   -0.0017   -0.0001    0.0003    0.0007    0.0011   -0.0002
          59   -0.0005    0.0005   -0.0010    0.0004   -0.0003   -0.0009    0.0009    0.0003
          60   -0.0004    0.0002   -0.0002    0.0000   -0.0001   -0.0009    0.0003   -0.0000
          61   -0.0096   -0.0281   -0.0138   -0.0009    0.0147    0.1684    0.0043   -0.0219
          62   -0.0035   -0.0183   -0.0054    0.0008    0.0045    0.1007    0.0050   -0.0142
          63   -0.0006   -0.0135   -0.0011    0.0023   -0.0007    0.0618   -0.0151    0.0059
          64   -0.0017    0.0117   -0.0023   -0.0024    0.0095   -0.0382    0.0031    0.0071
          65   -0.0003   -0.0228   -0.0058   -0.0028    0.0122    0.0086    0.0016   -0.0009
          66   -0.0010   -0.0082   -0.0060    0.0020   -0.0238   -0.0027   -0.0016    0.0021
          67   -0.0000    0.0439    0.0082    0.0222   -0.1414    0.0711   -0.0197   -0.0099
          68   -0.0011   -0.0459   -0.0177   -0.0068    0.0095   -0.0340    0.0022    0.0042
          69    0.0033    0.1281    0.0646   -0.0115    0.2471    0.0389    0.0321    0.0006
          70   -0.0021   -0.0743   -0.0167   -0.0171    0.1386   -0.0064    0.0203    0.0036
          71    0.0038    0.2071    0.0758    0.0125    0.0664    0.0266    0.0058    0.0000
          72    0.0018    0.1207    0.0408    0.0102    0.0069    0.0111    0.0006    0.0012
          73   -0.0022   -0.0299   -0.0281   -0.0009   -0.0761   -0.0944   -0.0094    0.0046
          74    0.0009    0.1143    0.0178    0.0328   -0.2382   -0.0057   -0.0337   -0.0031
          75   -0.0025   -0.1287   -0.0469   -0.0223    0.0670   -0.0812    0.0112    0.0045


   Root No.      49        50        51        52        53        54        55        56

                49 A      50 A      51 A      52 A      53 A      54 A      55 A      56 A   

                1367.8    1385.1    1386.0    1436.3    1515.9    1661.6    1667.5    1881.2
  
           1    0.0152   -0.0035   -0.0060    0.0205    0.0054    0.0194    0.0451    0.0004
           2   -0.0187    0.0003    0.0037   -0.0507   -0.0284   -0.0455   -0.1149    0.0042
           3    0.0026   -0.0021    0.0014   -0.0046   -0.0222   -0.0021   -0.0141    0.0032
           4    0.0138   -0.0043   -0.0088    0.0204    0.0067    0.0175    0.0428    0.0022
           5   -0.0540    0.0180    0.0292    0.0163    0.0216    0.0001    0.0306   -0.0003
           6   -0.0172    0.0080    0.0021    0.0108    0.0627   -0.0026    0.0400   -0.0083
           7   -0.0164    0.0041    0.0057   -0.0399    0.0085   -0.0465   -0.0428    0.0008
           8   -0.0202    0.0013   -0.0051   -0.0303    0.0565    0.0093    0.1339   -0.0047
           9   -0.0114    0.0018    0.0003   -0.0250    0.0188   -0.0161    0.0173   -0.0002
          10   -0.0266    0.0044    0.0061   -0.0441    0.0003   -0.0164   -0.0262    0.0006
          11    0.1897   -0.0200   -0.0286    0.1166    0.0074   -0.0917   -0.0591    0.0059
          12    0.0336   -0.0024   -0.0044    0.0169    0.0148   -0.0284   -0.0088   -0.0038
          13   -0.0192   -0.0004    0.0027   -0.0148   -0.0495    0.1297    0.0128    0.0006
          14    0.0164   -0.0029   -0.0000    0.0577   -0.0421    0.0444   -0.0327    0.0017
          15    0.0002   -0.0013    0.0008    0.0100   -0.0313    0.0656   -0.0046    0.0007
          16   -0.0170    0.0105    0.0167   -0.0935    0.0030   -0.0337   -0.0517    0.0037
          17    0.0166    0.0045    0.0096   -0.0108    0.0004   -0.0539   -0.0527    0.0015
          18   -0.0058    0.0065    0.0088   -0.0323    0.0205   -0.0464   -0.0339    0.0046
          19   -0.0087    0.0007   -0.0033    0.0611    0.0281   -0.1004   -0.0165    0.0006
          20   -0.0048    0.0012   -0.0006   -0.0057    0.0212   -0.0137    0.0044    0.0020
          21   -0.0034   -0.0000    0.0004    0.0171   -0.0057   -0.0381   -0.0079   -0.0025
          22    0.1537   -0.0125   -0.0039   -0.0515    0.0049   -0.0174   -0.0118   -0.0034
          23    0.1380   -0.0097    0.0018   -0.0976   -0.0545    0.0621    0.0004   -0.0039
          24    0.1257   -0.0119   -0.0069   -0.0563    0.0713   -0.0018    0.0084    0.0050
          25    0.1999   -0.0142   -0.0016   -0.1678    0.0425   -0.0195    0.0169   -0.0109
          26   -0.0841    0.0073    0.0007    0.1006   -0.0322   -0.0313   -0.0166   -0.0063
          27   -0.0055   -0.0014   -0.0018    0.0059    0.0524   -0.0274   -0.0081    0.0049
          28   -0.0022   -0.0062   -0.0172   -0.0029   -0.0009   -0.0001   -0.0015   -0.0002
          29    0.0042   -0.0139   -0.0382    0.0147    0.0014    0.0091    0.0138   -0.0011
          30   -0.0013   -0.0035   -0.0118    0.0017    0.0032    0.0020    0.0015    0.0004
          31    0.0341    0.0563    0.1500    0.0440    0.0230    0.0204    0.0507    0.0036
          32    0.0315    0.0397    0.1071    0.0432    0.0134    0.0169    0.0341    0.0013
          33    0.0224    0.0275    0.0769    0.0272    0.0115    0.0110    0.0349   -0.0080
          34    0.0044   -0.0019   -0.0018    0.0015   -0.0046   -0.0010   -0.0008   -0.0168
          35    0.0105    0.0725    0.1942    0.0020    0.0055   -0.0005   -0.0010   -0.0062
          36    0.0124    0.0300    0.0854    0.0106    0.0040    0.0004    0.0123   -0.0095
          37    0.0117    0.0232    0.0605    0.0165    0.0140    0.0046    0.0149    0.0015
          38    0.0170    0.0621    0.1603    0.0198    0.0248    0.0068    0.0197   -0.0035
          39   -0.0028   -0.0092   -0.0253   -0.0040   -0.0053   -0.0014   -0.0116    0.0024
          40    0.0003   -0.0001   -0.0004   -0.0000   -0.0023   -0.0029    0.0031    0.0004
          41    0.0002    0.0004    0.0005   -0.0007   -0.0017   -0.0003    0.0013    0.0052
          42    0.0001    0.0004    0.0002    0.0000    0.0013    0.0004   -0.0001    0.0027
          43   -0.0007    0.0014    0.0016   -0.0017   -0.0088   -0.0016    0.0009   -0.0117
          44    0.0000    0.0001    0.0002   -0.0001   -0.0021   -0.0026    0.0031    0.2161
          45    0.0005   -0.0005    0.0002   -0.0011   -0.0052   -0.0016    0.0024    0.1234
          46    0.0002    0.0005    0.0009   -0.0010    0.0000    0.0018    0.0016    0.1949
          47   -0.0004    0.0006   -0.0017    0.0024    0.0122    0.0050   -0.0049    0.1229
          48   -0.0000   -0.0004   -0.0011    0.0007    0.0007    0.0020   -0.0023    0.0237
          49    0.0008   -0.0012   -0.0046    0.0091    0.0743    0.0515   -0.0505   -0.0002
          50   -0.0017    0.0083   -0.0015    0.0020    0.0420    0.0637   -0.0599   -0.0189
          51   -0.0006    0.0043   -0.0029    0.0069    0.0467    0.0259   -0.0298   -0.0089
          52   -0.0000    0.0002   -0.0003    0.0003    0.0016    0.0010   -0.0010   -0.0036
          53   -0.0001   -0.0015   -0.0001    0.0006    0.0024    0.0003   -0.0010   -0.1476
          54   -0.0002   -0.0008   -0.0001    0.0006    0.0021   -0.0001   -0.0006   -0.0827
          55    0.0009   -0.0011    0.0007   -0.0018   -0.0263   -0.0319    0.0322   -0.0251
          56    0.0024   -0.0063    0.0027   -0.0051   -0.0515   -0.0532    0.0544   -0.0058
          57    0.0013   -0.0012   -0.0002   -0.0001   -0.0052   -0.0219    0.0280   -0.0023
          58   -0.0002   -0.0003    0.0002   -0.0005   -0.0028   -0.0001   -0.0019   -0.1190
          59   -0.0001   -0.0005    0.0002   -0.0007   -0.0043   -0.0014    0.0002   -0.0945
          60   -0.0001   -0.0001   -0.0000   -0.0001   -0.0006   -0.0007    0.0006   -0.0238
          61   -0.0036   -0.0071   -0.0047    0.0047    0.0367    0.0251   -0.0325    0.0145
          62    0.0013   -0.0067   -0.0013    0.0020   -0.0039   -0.0254    0.0285   -0.0117
          63   -0.0048   -0.0087    0.0026   -0.0151   -0.0567   -0.0136   -0.0103    0.0090
          64   -0.0048   -0.0396    0.0179   -0.0037   -0.0246   -0.0128    0.0132    0.0043
          65   -0.0008   -0.0036    0.0012    0.0003   -0.0042   -0.0061    0.0052    0.0013
          66    0.0004   -0.0151    0.0069   -0.0034   -0.0130   -0.0042    0.0058    0.0008
          67    0.0221    0.1711   -0.0665   -0.0083   -0.0620   -0.0387    0.0392   -0.0063
          68   -0.0058   -0.0779    0.0306    0.0018    0.0265    0.0191   -0.0198   -0.0025
          69   -0.0170    0.0559   -0.0206    0.0048   -0.0337   -0.0166    0.0170    0.0067
          70    0.0083    0.1792   -0.0657   -0.0097   -0.0603   -0.0114    0.0165   -0.0041
          71   -0.0010    0.0522   -0.0195   -0.0001   -0.0138   -0.0033    0.0036    0.0049
          72   -0.0019   -0.0020    0.0016   -0.0006   -0.0016    0.0047   -0.0032    0.0040
          73    0.0149    0.1405   -0.0522   -0.0052   -0.0235   -0.0058    0.0053   -0.0024
          74    0.0212    0.0592   -0.0232   -0.0054    0.0012    0.0020   -0.0018   -0.0038
          75    0.0043    0.1326   -0.0496   -0.0015   -0.0251   -0.0080    0.0083   -0.0076


   Root No.      57        58        59        60        61        62        63        64

                57 A      58 A      59 A      60 A      61 A      62 A      63 A      64 A   

                1946.1    2647.8    2653.4    2667.8    2668.8    2693.9    2713.9    2740.5
  
           1    0.0003    0.0034   -0.0003    0.0037   -0.0007   -0.0005   -0.0363   -0.0083
           2   -0.0056   -0.0003    0.0000    0.0002    0.0000   -0.0001    0.0021    0.0019
           3   -0.0035    0.0015   -0.0000   -0.0021   -0.0000    0.0000    0.0002    0.0000
           4   -0.0040   -0.0722    0.0036   -0.0717    0.0088    0.0057    0.4918    0.0946
           5   -0.0005    0.0032   -0.0001    0.0030   -0.0002   -0.0016   -0.0047   -0.0020
           6    0.0078    0.0017    0.0000    0.0002   -0.0003   -0.0008    0.0005   -0.0003
           7   -0.0013    0.0005   -0.0000    0.0006   -0.0000   -0.0010    0.0107   -0.0139
           8    0.0053   -0.0003   -0.0001   -0.0004   -0.0000   -0.0012    0.0002   -0.0024
           9    0.0014    0.0002   -0.0000   -0.0000   -0.0000   -0.0006    0.0037   -0.0048
          10    0.0037   -0.0006    0.0003   -0.0011   -0.0005    0.0092   -0.1733    0.1947
          11   -0.0029    0.0001   -0.0000   -0.0000   -0.0001   -0.0004   -0.0027   -0.0019
          12    0.0005   -0.0007    0.0001   -0.0002   -0.0002    0.0025   -0.0529    0.0583
          13   -0.0041   -0.0002    0.0001   -0.0000    0.0001    0.0058   -0.0003    0.0158
          14   -0.0016   -0.0001   -0.0000   -0.0002   -0.0001   -0.0057    0.0028   -0.0238
          15   -0.0020   -0.0001    0.0000   -0.0001    0.0001    0.0006    0.0009   -0.0035
          16    0.0039    0.0006   -0.0003   -0.0008   -0.0032   -0.0829    0.0206   -0.2312
          17   -0.0021   -0.0005    0.0002    0.0012    0.0047    0.1138   -0.0271    0.3046
          18   -0.0012   -0.0002    0.0001    0.0002    0.0006    0.0134   -0.0029    0.0335
          19    0.0031    0.0001   -0.0004    0.0000   -0.0009   -0.0129    0.0003    0.0007
          20    0.0008   -0.0003   -0.0005   -0.0003    0.0031    0.0358    0.0008   -0.0101
          21    0.0012    0.0000   -0.0002   -0.0001    0.0019    0.0217    0.0001   -0.0053
          22    0.0002   -0.0014    0.0024   -0.0010    0.0244    0.2997   -0.0040   -0.0305
          23   -0.0001    0.0008   -0.0026    0.0003   -0.0159   -0.1991    0.0049    0.0149
          24    0.0036    0.0002   -0.0002    0.0001   -0.0092   -0.1216    0.0032    0.0089
          25   -0.0038    0.0011    0.0032    0.0013   -0.0116   -0.1268   -0.0055    0.0456
          26   -0.0058    0.0023    0.0077    0.0028   -0.0238   -0.2555   -0.0124    0.0994
          27    0.0019    0.0012    0.0049    0.0017   -0.0145   -0.1572   -0.0073    0.0614
          28    0.0004   -0.0341    0.0009   -0.0226   -0.0007   -0.0004   -0.0084   -0.0015
          29    0.0020    0.0055   -0.0004    0.0218    0.0007    0.0001    0.0029    0.0011
          30    0.0007    0.0289   -0.0001   -0.0319   -0.0012    0.0001   -0.0005    0.0001
          31   -0.0041    0.0559   -0.0037    0.1936    0.0067    0.0007    0.0421    0.0115
          32   -0.0013   -0.1135    0.0063   -0.3182   -0.0111   -0.0010   -0.0719   -0.0193
          33    0.0034    0.0515   -0.0022    0.0872    0.0030    0.0003    0.0226    0.0060
          34    0.0152    0.4268   -0.0078    0.0616    0.0001    0.0041    0.0375    0.0019
          35    0.0024    0.0678   -0.0014    0.0205    0.0005    0.0007    0.0108    0.0015
          36    0.0042   -0.1684    0.0033   -0.0463   -0.0008   -0.0018   -0.0158   -0.0004
          37   -0.0013   -0.0496    0.0004    0.0358    0.0012   -0.0000   -0.0045   -0.0016
          38    0.0010   -0.0148   -0.0002    0.0366    0.0013    0.0001    0.0021   -0.0001
          39    0.0002   -0.2443    0.0003    0.3665    0.0128    0.0003   -0.0088   -0.0096
          40   -0.0064   -0.0001    0.0000   -0.0000   -0.0000    0.0000   -0.0000   -0.0001
          41    0.0004   -0.0002    0.0001    0.0000   -0.0001    0.0001   -0.0000   -0.0002
          42    0.0008   -0.0001   -0.0000    0.0000   -0.0001    0.0000    0.0000   -0.0001
          43    0.0080    0.0002   -0.0001    0.0000   -0.0003   -0.0000   -0.0000    0.0001
          44    0.2088    0.0001   -0.0002   -0.0000    0.0005   -0.0002    0.0002    0.0004
          45    0.1153    0.0000    0.0000   -0.0000    0.0003   -0.0002    0.0001    0.0003
          46   -0.2021    0.0013   -0.0002    0.0003   -0.0001   -0.0000   -0.0001   -0.0001
          47   -0.1559    0.0009   -0.0001    0.0001    0.0001   -0.0001   -0.0002    0.0001
          48   -0.0392    0.0003    0.0000    0.0000    0.0001   -0.0000   -0.0000    0.0001
          49    0.0343    0.0000   -0.0002    0.0000    0.0002   -0.0002    0.0002    0.0001
          50    0.0067    0.0002    0.0020    0.0001   -0.0023    0.0001   -0.0002   -0.0003
          51    0.0002   -0.0001   -0.0023    0.0000   -0.0021    0.0006    0.0000    0.0001
          52   -0.0031   -0.0000    0.0001   -0.0000   -0.0001    0.0001    0.0000   -0.0000
          53   -0.1265   -0.0001    0.0001    0.0000   -0.0002    0.0001   -0.0001   -0.0002
          54   -0.0709   -0.0000   -0.0000    0.0000   -0.0001    0.0000   -0.0000   -0.0001
          55    0.0208   -0.0004    0.0002    0.0002    0.0003    0.0001    0.0016    0.0015
          56   -0.0177   -0.0002   -0.0004   -0.0005    0.0008   -0.0006   -0.0033   -0.0027
          57   -0.0110   -0.0002   -0.0002   -0.0002    0.0002   -0.0002   -0.0000   -0.0007
          58    0.1199   -0.0006    0.0001   -0.0001   -0.0000    0.0000    0.0001   -0.0000
          59    0.0958   -0.0005    0.0001   -0.0001   -0.0000    0.0000    0.0000   -0.0000
          60    0.0242   -0.0003    0.0000   -0.0000   -0.0000    0.0000    0.0000   -0.0000
          61   -0.0009   -0.0004   -0.0022   -0.0035    0.0023   -0.0027   -0.0201   -0.0178
          62   -0.0173    0.0008    0.0040    0.0068   -0.0045    0.0057    0.0408    0.0354
          63   -0.0145   -0.0003    0.0011    0.0015   -0.0005    0.0011    0.0097    0.0074
          64   -0.0052    0.0003    0.0103   -0.0003    0.0120   -0.0010   -0.0000    0.0003
          65   -0.0004    0.0003    0.0339    0.0014   -0.0312    0.0027    0.0006   -0.0004
          66   -0.0019   -0.0007   -0.0323    0.0006   -0.0288    0.0022    0.0007   -0.0000
          67   -0.0125   -0.0009   -0.0986   -0.0049    0.1155   -0.0092   -0.0028    0.0004
          68    0.0015   -0.0027   -0.2822   -0.0129    0.3023   -0.0253   -0.0086    0.0004
          69    0.0017   -0.0009   -0.0700   -0.0022    0.0424   -0.0040   -0.0012    0.0003
          70   -0.0048    0.0011    0.0602    0.0000    0.0187   -0.0011   -0.0007   -0.0003
          71    0.0034   -0.0038   -0.2141   -0.0002   -0.0684    0.0037    0.0032    0.0021
          72    0.0012    0.0070    0.4213    0.0018    0.0857   -0.0040   -0.0054   -0.0041
          73   -0.0055   -0.0035   -0.0822    0.0083   -0.2798    0.0223    0.0028   -0.0041
          74   -0.0035    0.0023    0.0700   -0.0045    0.1582   -0.0124   -0.0016    0.0024
          75   -0.0079    0.0028    0.0596   -0.0072    0.2360   -0.0197   -0.0023    0.0039


   Root No.      65        66        67        68        69

                65 A      66 A      67 A      68 A      69 A   

                2753.4    2758.8    2765.2    2773.4    2774.7
  
           1   -0.0081   -0.0027    0.0050   -0.0032   -0.0026
           2    0.0017   -0.0001    0.0003   -0.0025   -0.0029
           3   -0.0001   -0.0003    0.0012   -0.0009   -0.0009
           4    0.0910    0.0324   -0.0604    0.0320    0.0193
           5   -0.0035   -0.0017    0.0011    0.0002    0.0007
           6   -0.0004    0.0000    0.0013    0.0001    0.0008
           7   -0.0240   -0.0062    0.0031   -0.0021   -0.0027
           8    0.0010    0.0017   -0.0005    0.0008    0.0006
           9   -0.0068   -0.0013    0.0007   -0.0004   -0.0007
          10    0.3121    0.0813   -0.0374    0.0251    0.0329
          11   -0.0016   -0.0000    0.0006   -0.0005   -0.0006
          12    0.0941    0.0246   -0.0109    0.0074    0.0099
          13   -0.0092   -0.0084   -0.0001   -0.0008   -0.0007
          14    0.0094    0.0062    0.0014    0.0001    0.0009
          15    0.0004   -0.0003    0.0004   -0.0002    0.0001
          16    0.1001    0.0757    0.0100    0.0039    0.0088
          17   -0.1334   -0.0977   -0.0133   -0.0050   -0.0120
          18   -0.0149   -0.0102   -0.0011   -0.0007   -0.0013
          19    0.0063   -0.0259   -0.0007   -0.0009    0.0019
          20    0.0057   -0.0049    0.0003   -0.0004    0.0009
          21    0.0035   -0.0042   -0.0007    0.0000    0.0005
          22   -0.0382    0.2289    0.0016    0.0097   -0.0155
          23    0.0321   -0.1704   -0.0019   -0.0069    0.0116
          24    0.0202   -0.1041   -0.0005   -0.0051    0.0077
          25   -0.0403    0.0985    0.0006    0.0049   -0.0089
          26   -0.0955    0.2455    0.0022    0.0121   -0.0218
          27   -0.0578    0.1486    0.0017    0.0070   -0.0130
          28   -0.0010   -0.0005    0.0020   -0.0030   -0.0033
          29    0.0033    0.0002    0.0011   -0.0083   -0.0105
          30    0.0006    0.0000    0.0011   -0.0028   -0.0034
[...]
 TRANSITION DIPOLE   0.6571         C 16 -- C 19          +9.8% ( 45.4%)     75.0%
 TRAVEL (Ang.)       0.3850         C  1 -- C 19          +7.9% ( 40.7%)     20.7%
 REDUCED MASS        0.4406         C 17 -- C 19          +7.7% ( 40.3%)      3.4%
 EFFECTIVE MASS      6.1451
 FORCE CONSTANT      0.2768

 VIBRATION         33   33A           ATOM PAIR      ENERGY CONTRIBUTION    RADIAL
 FREQUENCY          1036.92         C  7 -- H  9         +17.0% ( 53.5%)      8.0%
 TRANSITION DIPOLE   0.6595         C 22 -- H 25         +13.3% ( 47.3%)      8.8%
 TRAVEL (Ang.)       0.5107         C 19 -- H 21         +12.4% ( 45.7%)      5.4%
 REDUCED MASS        0.2493         C  7 -- H  8          +9.1% ( 39.1%)      5.4%
 EFFECTIVE MASS      3.5167
 FORCE CONSTANT      0.1579

 VIBRATION         34   34A           ATOM PAIR      ENERGY CONTRIBUTION    RADIAL
 FREQUENCY          1050.48         C 19 -- H 21         +11.9% ( 48.7%)     28.5%
 TRANSITION DIPOLE   1.0414         O 14 -- C 15         +10.1% ( 44.9%)     78.5%
 TRAVEL (Ang.)       0.3550         C 22 -- H 23          +7.8% ( 39.6%)     34.5%
 REDUCED MASS        0.5093         C 16 -- C 19          +7.6% ( 38.9%)     93.5%
 EFFECTIVE MASS      6.9258
 FORCE CONSTANT      0.3311

 VIBRATION         35   35A           ATOM PAIR      ENERGY CONTRIBUTION    RADIAL
 FREQUENCY          1056.84         C 22 -- H 24         +16.3% ( 51.0%)     15.5%
 TRANSITION DIPOLE   0.9096         C  7 -- H  8         +14.8% ( 48.7%)      6.1%
 TRAVEL (Ang.)       0.4714         C  7 -- H  9         +12.1% ( 44.1%)     14.0%
 REDUCED MASS        0.2872         C 22 -- H 23         +11.2% ( 42.4%)      9.3%
 EFFECTIVE MASS      4.0121
 FORCE CONSTANT      0.1890

 VIBRATION         36   36A           ATOM PAIR      ENERGY CONTRIBUTION    RADIAL
 FREQUENCY          1085.87         C 10 -- H 13         +17.9% ( 51.8%)     22.9%
 TRANSITION DIPOLE   0.3600         C  1 -- H  2         +13.7% ( 45.3%)      0.0%
 TRAVEL (Ang.)       0.3584         C 10 -- H 12          +9.2% ( 37.2%)      4.8%
 REDUCED MASS        0.4836         C  1 -- C 10          +8.9% ( 36.5%)      5.4%
 EFFECTIVE MASS      5.0088
 FORCE CONSTANT      0.3359

 VIBRATION         37   37A           ATOM PAIR      ENERGY CONTRIBUTION    RADIAL
 FREQUENCY          1133.24         C  7 -- H  8         +24.5% ( 51.8%)      0.3%
 TRANSITION DIPOLE   0.4888         C  7 -- H  9         +16.2% ( 42.2%)      0.0%
 TRAVEL (Ang.)       0.3845         C 22 -- H 24         +12.1% ( 36.4%)     25.6%
 REDUCED MASS        0.4024         C 17 -- C 22          +7.2% ( 28.1%)     11.2%
 EFFECTIVE MASS      3.6212
 FORCE CONSTANT      0.3045

 VIBRATION         38   38A           ATOM PAIR      ENERGY CONTRIBUTION    RADIAL
 FREQUENCY          1166.90         C  1 -- C 10         +20.8% ( 70.4%)     74.2%
 TRANSITION DIPOLE   0.3886         C  1 -- C  3         +14.6% ( 58.9%)      6.5%
 TRAVEL (Ang.)       0.2013         C  3 -- H  4         +10.6% ( 50.1%)     28.2%
 REDUCED MASS        1.4254         C  1 -- C 19          +8.6% ( 45.3%)      1.8%
 EFFECTIVE MASS      8.3662
 FORCE CONSTANT      1.1436

 VIBRATION         39   39A           ATOM PAIR      ENERGY CONTRIBUTION    RADIAL
 FREQUENCY          1213.60         C 19 -- H 21         +29.6% ( 83.0%)      0.6%
 TRANSITION DIPOLE   1.2703         C 16 -- C 19         +15.9% ( 61.0%)     97.6%
 TRAVEL (Ang.)       0.1799         C  1 -- C 19         +11.9% ( 52.7%)      0.1%
 REDUCED MASS        1.7166         C 17 -- C 19         +11.3% ( 51.4%)     33.7%
 EFFECTIVE MASS      7.8976
 FORCE CONSTANT      1.4896

 VIBRATION         40   40A           ATOM PAIR      ENERGY CONTRIBUTION    RADIAL
 FREQUENCY          1225.10         C 15 -- C 16         +14.4% ( 57.8%)     87.7%
 TRANSITION DIPOLE   2.0479         O 14 -- C 16         +14.4% ( 57.8%)     52.8%
 TRAVEL (Ang.)       0.1635         C 16 -- C 19         +13.7% ( 56.4%)     47.1%
 REDUCED MASS        2.0602         O 14 -- C 15         +10.0% ( 48.2%)     65.2%
 EFFECTIVE MASS     10.9442
 FORCE CONSTANT      1.8218

 VIBRATION         41   41A           ATOM PAIR      ENERGY CONTRIBUTION    RADIAL
 FREQUENCY          1263.32         C 10 -- H 13         +38.4% ( 53.7%)      0.2%
 TRANSITION DIPOLE   0.5396         C 10 -- H 12         +35.2% ( 51.4%)      0.8%
 TRAVEL (Ang.)       0.3942         C 10 -- H 11         +12.4% ( 30.5%)     17.7%
 REDUCED MASS        0.3435         C  1 -- H  2          +5.9% ( 21.0%)      8.1%
 EFFECTIVE MASS      1.4467
 FORCE CONSTANT      0.3230

 VIBRATION         42   42A           ATOM PAIR      ENERGY CONTRIBUTION    RADIAL
 FREQUENCY          1270.80         C 22 -- H 24         +38.0% ( 56.7%)      0.1%
 TRANSITION DIPOLE   0.4367         C 22 -- H 25         +19.7% ( 40.8%)      8.5%
 TRAVEL (Ang.)       0.4228         C 22 -- H 23         +13.8% ( 34.2%)     12.7%
 REDUCED MASS        0.2968         C 17 -- C 22          +6.3% ( 23.1%)     13.8%
 EFFECTIVE MASS      1.9426
 FORCE CONSTANT      0.2824

 VIBRATION         43   43A           ATOM PAIR      ENERGY CONTRIBUTION    RADIAL
 FREQUENCY          1272.71         C 10 -- H 11         +24.4% ( 48.9%)      0.1%
 TRANSITION DIPOLE   0.5852         C 10 -- H 13         +11.8% ( 34.1%)      4.0%
 TRAVEL (Ang.)       0.5077         C  1 -- H  2          +9.8% ( 30.9%)     23.3%
 REDUCED MASS        0.2055         C 10 -- H 12          +9.1% ( 29.8%)     22.1%
 EFFECTIVE MASS      2.4338
 FORCE CONSTANT      0.1961

 VIBRATION         44   44A           ATOM PAIR      ENERGY CONTRIBUTION    RADIAL
 FREQUENCY          1275.61         C 10 -- H 12         +15.2% ( 43.2%)      2.0%
 TRANSITION DIPOLE   0.5425         C  1 -- C 10         +13.6% ( 40.9%)     92.1%
 TRAVEL (Ang.)       0.4183         C  5 -- H  6         +12.3% ( 38.8%)      6.8%
 REDUCED MASS        0.3021         C 10 -- H 11         +11.4% ( 37.5%)      0.0%
 EFFECTIVE MASS      3.4776         C  3 -- H  4         +10.2% ( 35.5%)      5.4%
 FORCE CONSTANT      0.2897

 VIBRATION         45   45A           ATOM PAIR      ENERGY CONTRIBUTION    RADIAL
 FREQUENCY          1277.81         C 22 -- H 23         +41.4% ( 56.0%)      0.6%
 TRANSITION DIPOLE   0.5014         C 22 -- H 25         +34.0% ( 50.8%)      1.9%
 TRAVEL (Ang.)       0.3899         C 22 -- H 24         +12.7% ( 31.1%)     28.8%
 REDUCED MASS        0.3470         C 17 -- C 22          +3.5% ( 16.3%)      1.3%
 EFFECTIVE MASS      1.4936
 FORCE CONSTANT      0.3339

 VIBRATION         46   46A           ATOM PAIR      ENERGY CONTRIBUTION    RADIAL
 FREQUENCY          1296.62         C 17 -- C 22         +19.4% ( 65.1%)     46.9%
 TRANSITION DIPOLE   0.8025         C 15 -- C 17         +18.5% ( 63.6%)     95.8%
 TRAVEL (Ang.)       0.1384         C 17 -- C 19         +17.6% ( 61.9%)     14.9%
 REDUCED MASS        2.7139         C  7 -- C 17         +14.4% ( 56.0%)      0.1%
 EFFECTIVE MASS      8.3454
 FORCE CONSTANT      2.6882

 VIBRATION         47   47A           ATOM PAIR      ENERGY CONTRIBUTION    RADIAL
 FREQUENCY          1302.25         C  3 -- H  4         +21.3% ( 50.5%)      2.1%
 TRANSITION DIPOLE   0.0932         C  5 -- H  6         +19.8% ( 48.8%)      9.5%
 TRAVEL (Ang.)       0.4399         C  1 -- H  2         +15.4% ( 42.9%)     10.9%
 REDUCED MASS        0.2676         C  7 -- H  8          +8.8% ( 32.5%)     25.9%
 EFFECTIVE MASS      2.9948
 FORCE CONSTANT      0.2674

 VIBRATION         48   48A           ATOM PAIR      ENERGY CONTRIBUTION    RADIAL
 FREQUENCY          1326.14         C  1 -- H  2         +39.1% ( 72.7%)      0.3%
 TRANSITION DIPOLE   0.1282         C  5 -- H  6         +21.0% ( 53.3%)      0.1%
 TRAVEL (Ang.)       0.3391         C  1 -- C 10          +8.6% ( 34.0%)     77.7%
 REDUCED MASS        0.4423         C  1 -- C 19          +5.8% ( 28.1%)      0.3%
 EFFECTIVE MASS      2.8613
 FORCE CONSTANT      0.4583

 VIBRATION         49   49A           ATOM PAIR      ENERGY CONTRIBUTION    RADIAL
 FREQUENCY          1367.79         C  7 -- H  8         +23.9% ( 49.3%)      0.0%
 TRANSITION DIPOLE   0.4773         C  3 -- H  4         +23.6% ( 49.0%)      3.3%
 TRAVEL (Ang.)       0.4056         C  7 -- H  9         +19.0% ( 44.0%)      0.8%
 REDUCED MASS        0.2997         C  3 -- C  5          +8.5% ( 29.4%)     78.8%
 EFFECTIVE MASS      2.3995
 FORCE CONSTANT      0.3304

 VIBRATION         50   50A           ATOM PAIR      ENERGY CONTRIBUTION    RADIAL
 FREQUENCY          1385.14         C 22 -- H 25         +26.8% ( 53.6%)      1.4%
 TRANSITION DIPOLE   1.1087         C 22 -- H 23         +25.8% ( 52.6%)      1.9%
 TRAVEL (Ang.)       0.3470         C 22 -- H 24         +24.0% ( 50.8%)      1.4%
 REDUCED MASS        0.4044         C 17 -- C 22          +7.7% ( 28.8%)     94.3%
 EFFECTIVE MASS      2.4572
 FORCE CONSTANT      0.4571

 VIBRATION         51   51A           ATOM PAIR      ENERGY CONTRIBUTION    RADIAL
 FREQUENCY          1385.99         C 10 -- H 12         +28.4% ( 55.8%)      1.3%
 TRANSITION DIPOLE   0.8770         C 10 -- H 11         +25.4% ( 52.8%)      2.3%
 TRAVEL (Ang.)       0.3414         C 10 -- H 13         +20.7% ( 47.6%)      1.6%
 REDUCED MASS        0.4175         C  1 -- C 10          +7.5% ( 28.7%)     96.2%
 EFFECTIVE MASS      2.5669
 FORCE CONSTANT      0.4726

 VIBRATION         52   52A           ATOM PAIR      ENERGY CONTRIBUTION    RADIAL
 FREQUENCY          1436.26         C  5 -- C  7         +14.4% ( 54.1%)     51.0%
 TRANSITION DIPOLE   0.4248         C  3 -- C  5         +14.3% ( 54.0%)     98.1%
 TRAVEL (Ang.)       0.1902         C  7 -- H  9         +13.0% ( 51.5%)      1.5%
 REDUCED MASS        1.2984         C  1 -- C  3         +10.4% ( 45.9%)     53.2%
 EFFECTIVE MASS      8.3244
 FORCE CONSTANT      1.5780

 VIBRATION         53   53A           ATOM PAIR      ENERGY CONTRIBUTION    RADIAL
 FREQUENCY          1515.93         C 17 -- C 19         +17.3% ( 67.0%)     90.4%
 TRANSITION DIPOLE   1.4698         C 17 -- C 22         +11.7% ( 55.0%)     86.8%
 TRAVEL (Ang.)       0.1434         C  3 -- C  5         +11.1% ( 53.5%)     99.0%
 REDUCED MASS        2.1646         C  7 -- C 17         +10.4% ( 51.8%)      8.2%
 EFFECTIVE MASS     10.6401
 FORCE CONSTANT      2.9307

 VIBRATION         54   54A           ATOM PAIR      ENERGY CONTRIBUTION    RADIAL
 FREQUENCY          1661.58         C  5 -- C  7         +25.2% ( 75.5%)     96.0%
 TRANSITION DIPOLE   0.8720         C  3 -- C  5         +13.9% ( 56.1%)     42.1%
 TRAVEL (Ang.)       0.1144         C  5 -- H  6         +11.8% ( 51.7%)      2.9%
 REDUCED MASS        3.1019         C  7 -- C 17          +9.7% ( 46.9%)      1.0%
 EFFECTIVE MASS     11.5738
 FORCE CONSTANT      5.0457

 VIBRATION         55   55A           ATOM PAIR      ENERGY CONTRIBUTION    RADIAL
 FREQUENCY          1667.52         C  1 -- C  3         +26.6% ( 78.6%)     94.5%
 TRANSITION DIPOLE   1.9908         C  3 -- C  5         +11.7% ( 52.1%)     51.7%
 TRAVEL (Ang.)       0.1121         C  1 -- C 19         +10.3% ( 49.0%)      2.7%
 REDUCED MASS        3.2190         C  3 -- H  4         +10.2% ( 48.6%)      3.2%
 EFFECTIVE MASS     11.5081
 FORCE CONSTANT      5.2736

 VIBRATION         56   56A           ATOM PAIR      ENERGY CONTRIBUTION    RADIAL
 FREQUENCY          1881.24         C 15 -- O 18         +23.9% ( 74.2%)     99.8%
 TRANSITION DIPOLE   6.9488         C 16 -- O 20         +20.3% ( 68.4%)     99.4%
 TRAVEL (Ang.)       0.1021         C 15 -- C 16         +17.5% ( 63.6%)      1.1%
 REDUCED MASS        3.4414         C 15 -- C 17         +10.2% ( 48.4%)     51.5%
 EFFECTIVE MASS     13.4324
 FORCE CONSTANT      7.1759

 VIBRATION         57   57A           ATOM PAIR      ENERGY CONTRIBUTION    RADIAL
 FREQUENCY          1946.06         C 16 -- O 20         +22.1% ( 71.4%)    100.0%
 TRANSITION DIPOLE   2.8044         C 15 -- C 16         +20.2% ( 68.3%)     99.7%
 TRAVEL (Ang.)       0.0994         C 15 -- O 18         +18.9% ( 66.1%)    100.0%
 REDUCED MASS        3.5043         C 16 -- C 19         +10.5% ( 49.2%)     60.3%
 EFFECTIVE MASS     13.2405         O 14 -- C 16         +10.2% ( 48.5%)     23.2%
 FORCE CONSTANT      7.8191

 VIBRATION         58   58A           ATOM PAIR      ENERGY CONTRIBUTION    RADIAL
 FREQUENCY          2647.80         C 10 -- H 12         +69.4% ( 86.0%)     99.6%
 TRANSITION DIPOLE   0.6367         C 10 -- H 13         +21.1% ( 47.4%)     90.7%
 TRAVEL (Ang.)       0.2160         C 10 -- H 11          +6.9% ( 27.1%)     68.7%
 REDUCED MASS        0.5457         C  1 -- H  2          +1.6% ( 13.1%)     99.6%
 EFFECTIVE MASS      1.4357
 FORCE CONSTANT      2.2542

 VIBRATION         59   59A           ATOM PAIR      ENERGY CONTRIBUTION    RADIAL
 FREQUENCY          2653.38         C 22 -- H 24         +65.8% ( 83.6%)     99.4%
 TRANSITION DIPOLE   0.6862         C 22 -- H 23         +28.2% ( 54.7%)     93.4%
 TRAVEL (Ang.)       0.2193         C 22 -- H 25          +5.1% ( 23.4%)     59.1%
 REDUCED MASS        0.5286         C 17 -- C 22          +0.9% (  9.5%)      0.1%
 EFFECTIVE MASS      1.4371
 FORCE CONSTANT      2.1926

 VIBRATION         60   60A           ATOM PAIR      ENERGY CONTRIBUTION    RADIAL
 FREQUENCY          2667.82         C 10 -- H 11         +49.4% ( 72.5%)     98.5%
 TRANSITION DIPOLE   0.6553         C 10 -- H 13         +45.3% ( 69.4%)     97.1%
 TRAVEL (Ang.)       0.2332         C 10 -- H 12          +2.7% ( 16.8%)     34.9%
 REDUCED MASS        0.4649         C  1 -- H  2          +1.6% ( 13.1%)     99.2%
 EFFECTIVE MASS      1.4388
 FORCE CONSTANT      1.9493

 VIBRATION         61   61A           ATOM PAIR      ENERGY CONTRIBUTION    RADIAL
 FREQUENCY          2668.83         C 22 -- H 25         +56.0% ( 77.2%)     99.0%
 TRANSITION DIPOLE   0.5942         C 22 -- H 23         +37.3% ( 63.0%)     95.8%
 TRAVEL (Ang.)       0.2314         C 22 -- H 24          +4.9% ( 22.8%)     55.7%
 REDUCED MASS        0.4720         C 17 -- C 22          +0.9% (  9.7%)      0.0%
 EFFECTIVE MASS      1.4498
 FORCE CONSTANT      1.9807

 VIBRATION         62   62A           ATOM PAIR      ENERGY CONTRIBUTION    RADIAL
 FREQUENCY          2693.89         C  7 -- H  8         +51.6% ( 74.4%)     98.8%
 TRANSITION DIPOLE   0.4361         C  7 -- H  9         +38.9% ( 64.5%)     97.9%
 TRAVEL (Ang.)       0.2372         C  5 -- H  6          +6.7% ( 26.9%)     99.9%
 REDUCED MASS        0.4447         C  5 -- C  7          +1.0% ( 10.5%)      2.3%
 EFFECTIVE MASS      1.4740
 FORCE CONSTANT      1.9015

 VIBRATION         63   63A           ATOM PAIR      ENERGY CONTRIBUTION    RADIAL
 FREQUENCY          2713.88         C  1 -- H  2         +81.5% ( 91.8%)    100.0%
 TRANSITION DIPOLE   0.5124         C  3 -- H  4         +11.1% ( 33.9%)     99.9%
 TRAVEL (Ang.)       0.1921         C 10 -- H 11          +2.5% ( 16.2%)     98.0%
 REDUCED MASS        0.6730         C  1 -- C  3          +1.1% ( 10.5%)     30.5%
 EFFECTIVE MASS      1.3717
 FORCE CONSTANT      2.9205

 VIBRATION         64   64A           ATOM PAIR      ENERGY CONTRIBUTION    RADIAL
 FREQUENCY          2740.49         C  5 -- H  6         +66.4% ( 82.3%)    100.0%
 TRANSITION DIPOLE   0.7195         C  3 -- H  4         +18.6% ( 43.6%)     99.9%
 TRAVEL (Ang.)       0.2291         C  7 -- H  9          +7.1% ( 27.0%)     99.7%
 REDUCED MASS        0.4687         C  1 -- H  2          +4.1% ( 20.4%)     99.5%
 EFFECTIVE MASS      1.3816
 FORCE CONSTANT      2.0741

 VIBRATION         65   65A           ATOM PAIR      ENERGY CONTRIBUTION    RADIAL
 FREQUENCY          2753.36         C  3 -- H  4         +62.9% ( 79.8%)    100.0%
 TRANSITION DIPOLE   0.9815         C  5 -- H  6         +16.6% ( 40.9%)     99.9%
 TRAVEL (Ang.)       0.2420         C  7 -- H  9          +8.2% ( 28.8%)     98.9%
 REDUCED MASS        0.4182         C  1 -- H  2          +4.9% ( 22.3%)     99.4%
 EFFECTIVE MASS      1.3955
 FORCE CONSTANT      1.8678

 VIBRATION         66   66A           ATOM PAIR      ENERGY CONTRIBUTION    RADIAL
 FREQUENCY          2758.79         C  7 -- H  8         +43.0% ( 65.0%)     95.4%
 TRANSITION DIPOLE   0.8341         C  7 -- H  9         +42.9% ( 64.9%)     95.3%
 TRAVEL (Ang.)       0.2550         C  5 -- H  6          +7.5% ( 27.2%)     99.4%
 REDUCED MASS        0.3759         C  3 -- H  4          +3.5% ( 18.6%)     99.7%
 EFFECTIVE MASS      1.2800
 FORCE CONSTANT      1.6857

 VIBRATION         67   67A           ATOM PAIR      ENERGY CONTRIBUTION    RADIAL
 FREQUENCY          2765.21         C 19 -- H 21         +87.9% ( 95.0%)    100.0%
 TRANSITION DIPOLE   0.9093         C 22 -- H 23          +2.4% ( 15.7%)     96.4%
 TRAVEL (Ang.)       0.1790         C 22 -- H 25          +2.2% ( 14.9%)     95.7%
 REDUCED MASS        0.7608         C 22 -- H 24          +1.6% ( 13.0%)     93.8%
 EFFECTIVE MASS      1.3962
 FORCE CONSTANT      3.4274

 VIBRATION         68   68A           ATOM PAIR      ENERGY CONTRIBUTION    RADIAL
 FREQUENCY          2773.36         C 22 -- H 25         +22.9% ( 46.0%)     96.2%
 TRANSITION DIPOLE   0.8477         C 22 -- H 23         +19.8% ( 42.8%)     95.3%
 TRAVEL (Ang.)       0.3874         C 22 -- H 24         +16.5% ( 39.0%)     93.9%
 REDUCED MASS        0.1620         C 10 -- H 11         +14.3% ( 36.4%)     96.4%
 EFFECTIVE MASS      1.1602         C 10 -- H 13         +12.1% ( 33.4%)     95.1%
 FORCE CONSTANT      0.7341

 VIBRATION         69   69A           ATOM PAIR      ENERGY CONTRIBUTION    RADIAL
 FREQUENCY          2774.69         C 10 -- H 11         +24.4% ( 47.7%)     96.7%
 TRANSITION DIPOLE   0.5163         C 10 -- H 13         +19.2% ( 42.3%)     94.9%
 TRAVEL (Ang.)       0.3948         C 10 -- H 12         +14.9% ( 37.3%)     93.2%
 REDUCED MASS        0.1559         C 22 -- H 25         +12.4% ( 33.9%)     96.1%
 EFFECTIVE MASS      1.1732         C 22 -- H 23         +10.6% ( 31.3%)     95.1%
 FORCE CONSTANT      0.7074

           FORCE CONSTANT IN CARTESIAN COORDINATES (Millidynes/A)

    ATOM   CHEMICAL       X               Y               Z
   NUMBER   SYMBOL  FORCE CONSTANT  FORCE CONSTANT  FORCE CONSTANT

      1       C        8.316685       10.959488        2.020680
      2       H        4.129772        0.912962        0.554657
      3       C        8.650807       10.967850        3.673611
      4       H        3.910120        0.926688        0.733146
      5       C       10.131073        8.963357        4.369793
      6       H        2.059333        2.935803        0.532949
      7       C       10.596288        5.040188        3.233856
      8       H        2.784891        1.648079        1.018476
      9       H        1.184756        2.878967        1.363316
     10       C        6.515157        7.414448        6.094797
     11       H        1.554715        3.040078        0.809690
     12       H        3.467736        0.798465        1.085092
     13       H        0.597422        0.694673        4.000880
     14       O        6.219565        5.073591        1.894168
     15       C        5.857909       13.850199        6.119599
     16       C       13.569924        9.037206        3.477013
     17       C       10.506785        6.733397        4.354441
     18       O        0.984049       11.319161        3.800334
     19       C        7.975857       10.076392        2.264261
     20       O        8.949907        6.207156        0.924347
     21       H        1.455932        3.442079        0.619057
     22       C        7.540233        6.293806        6.244926
     23       H        1.093697        3.619612        0.688356
     24       H        0.773176        1.292041        3.244826
     25       H        2.345681        1.168297        1.886361

 **********************
 *                    *
 * JOB ENDED NORMALLY *
 *                    *
 **********************



 TOTAL JOB TIME:             1.63 SECONDS

 == MOPAC DONE ==
