 *******************************************************************************
 ** Site#: 36969        For non-commercial use only    Version 21.051W 64BITS **
 *******************************************************************************
 ** Cite this program as: MOPAC2016, Version: 21.051W, James J. P. Stewart,   **
 ** Stewart Computational Chemistry, web: HTTP://OpenMOPAC.net. Days left: 295**
 *******************************************************************************
 **                                                                           **
 **                                MOPAC2016                                  **
 **                                                                           **
 *******************************************************************************

                              PM7 CALCULATION RESULTS

 *******************************************************************************
 *  CALCULATION DONE:                                Sat May  1 14:35:17 2021  *
 *  PM7        - The PM7 Hamiltonian to be used
 *  FORCE      - FORCE CALCULATION SPECIFIED
 *  T=         - A TIME OF 172800.0 SECONDS REQUESTED
 *  DUMP=N     - RESTART FILE WRITTEN EVERY 7200.0 SECONDS REQUESTED
 *******************************************************************************
PM7 FORCE
 TS_1_FREQ

   ATOM   CHEMICAL          X               Y               Z
  NUMBER   SYMBOL      (ANGSTROMS)     (ANGSTROMS)     (ANGSTROMS)
 
     1       C          0.19572577  *  -0.88558729  *   1.95992885  *
     2       H          1.28818527  *  -0.92744768  *   1.91832104  *
     3       C         -0.47148653  *   0.32273925  *   2.02058017  *
     4       H         -1.50315828  *   0.35857788  *   2.37755067  *
     5       C          0.07937125  *   1.48820068  *   1.46980890  *
     6       H         -0.56115048  *   2.37192999  *   1.38243730  *
     7       C          1.32482338  *   1.48660050  *   0.87249891  *
     8       H          2.12755385  *   0.85040086  *   1.22881713  *
     9       H          1.68697494  *   2.35780554  *   0.33778396  *
    10       C         -0.48451270  *  -2.15083003  *   2.34415968  *
    11       H          0.05145859  *  -3.04345504  *   1.99618157  *
    12       H         -0.58438237  *  -2.24383195  *   3.43695080  *
    13       H         -1.50712053  *  -2.21430724  *   1.92955569  *
    14       O         -1.27895106  *   0.36866038  *  -1.16258286  *
    15       C         -0.05918921  *   1.02123290  *  -1.34206225  *
    16       C         -1.05819930  *  -0.87772780  *  -0.53452801  *
    17       C          1.01643370  *   0.15791105  *  -0.73175619  *
    18       O         -0.01793003  *   2.07215669  *  -1.90312156  *
    19       C          0.38502314  *  -0.99318940  *  -0.25896311  *
    20       O         -1.98904863  *  -1.60051615  *  -0.34973787  *
    21       H          0.83991638  *  -1.95699642  *  -0.12054380  *
    22       C          2.39927660  *   0.21481514  *  -1.26268443  *
    23       H          2.46217636  *  -0.27213453  *  -2.25177964  *
    24       H          2.75784047  *   1.24569325  *  -1.41310866  *
    25       H          3.12053071  *  -0.29663966  *  -0.60850273  *
 


          CARTESIAN COORDINATES 

    NO.       ATOM           X           Y           Z

     1         C          0.1957     -0.8856      1.9599
     2         H          1.2882     -0.9274      1.9183
     3         C         -0.4715      0.3227      2.0206
     4         H         -1.5032      0.3586      2.3776
     5         C          0.0794      1.4882      1.4698
     6         H         -0.5612      2.3719      1.3824
     7         C          1.3248      1.4866      0.8725
     8         H          2.1276      0.8504      1.2288
     9         H          1.6870      2.3578      0.3378
    10         C         -0.4845     -2.1508      2.3442
    11         H          0.0515     -3.0435      1.9962
    12         H         -0.5844     -2.2438      3.4370
    13         H         -1.5071     -2.2143      1.9296
    14         O         -1.2790      0.3687     -1.1626
    15         C         -0.0592      1.0212     -1.3421
    16         C         -1.0582     -0.8777     -0.5345
    17         C          1.0164      0.1579     -0.7318
    18         O         -0.0179      2.0722     -1.9031
    19         C          0.3850     -0.9932     -0.2590
    20         O         -1.9890     -1.6005     -0.3497
    21         H          0.8399     -1.9570     -0.1205
    22         C          2.3993      0.2148     -1.2627
    23         H          2.4622     -0.2721     -2.2518
    24         H          2.7578      1.2457     -1.4131
    25         H          3.1205     -0.2966     -0.6085

 General Reference for PM7:
 "Optimization of Parameters for Semiempirical Methods VI: More Modifications to the 
 NDDO Approximations and Re-optimization of Parameters", J. J. P. Stewart, J. Mol. Mod., 1:32, 19 (2013)
 https://link.springer.com/article/10.1007/s00894-012-1667-x

           Empirical Formula: C10 H12 O3  =    25 atoms



      MOLECULAR POINT GROUP   :   C1  


      RHF CALCULATION, NO. OF DOUBLY OCCUPIED LEVELS = 35



          HEAT OF FORMATION =     -61.049443 KCALS/MOLE


          CARTESIAN COORDINATE DERIVATIVES

   NUMBER  ATOM         X            Y            Z

     1       C     -0.391223    -0.136646     0.034765
     2       H      0.112517     0.043184    -0.598088
     3       C     -0.032350     0.655623     0.602210
     4       H      0.395135     0.556801     0.080096
     5       C      0.164204     0.125849     0.522390
     6       H     -0.018656    -0.502034    -0.847844
     7       C     -0.500136     0.037513     0.258890
     8       H      0.350654     0.048511     0.266378
     9       H      0.350827    -0.466291    -0.744774
    10       C      0.039292     0.221564     0.110353
    11       H     -0.112144     0.378621    -0.081146
    12       H     -0.194801    -0.945541    -0.003952
    13       H      0.443780     0.672418    -0.033404
    14       O      0.067312    -0.064574     0.352954
    15       C     -0.293765    -0.489750     0.227107
    16       C      0.523924     0.129730    -0.045522
    17       C     -0.177083    -0.333153     0.116743
    18       O     -0.272383     0.103761    -0.208664
    19       C     -0.086695     0.083998    -0.263660
    20       O      0.024466    -0.547341     0.069531
    21       H     -0.330243    -0.024266    -1.039829
    22       C     -0.096563    -0.047384     0.319561
    23       H      0.288834     0.757197     0.024963
    24       H     -0.110919    -0.157029     0.228121
    25       H     -0.143989    -0.100768     0.652814
 


          GRADIENT NORM =   3.20964

          MOLECULAR WEIGHT =  180.20



          ROTATIONAL CONSTANTS IN CM(-1)

          A =    0.03866489   B =    0.02611566   C =    0.02197979



           PRINCIPAL MOMENTS OF INERTIA IN UNITS OF 10**(-40)*GRAM-CM**2

          A =      723.9843   B =     1071.8770   C =     1273.5686


          ORIENTATION OF MOLECULE IN FORCE CALCULATION

    NO.       ATOM         X         Y         Z

     1          C       0.1714   -0.8615    1.9367
     2          H       1.2655   -0.8615    1.9367
     3          C      -0.5433    0.3208    1.9367
     4          H      -1.5885    0.3261    2.2542
     5          C      -0.0169    1.4910    1.3722
     6          H      -0.6870    2.3460    1.2350
     7          C       1.2495    1.5215    0.8216
     8          H       2.0618    0.9277    1.2261
     9          H       1.5981    2.3908    0.2749
    10          C      -0.4740   -2.1412    2.3331
    11          H       0.1086   -3.0215    2.0318
    12          H      -0.6117   -2.2071    3.4237
    13          H      -1.4769   -2.2566    1.8831
    14          O      -1.2303    0.2448   -1.2740
    15          C      -0.0305    0.9395   -1.4277
    16          C      -0.9861   -0.9736   -0.6014
    17          C       1.0534    0.1368   -0.7527
    18          O      -0.0082    1.9750   -2.0179
    19          C       0.4490   -1.0244   -0.2695
    20          O      -1.8950   -1.7270   -0.4297
    21          H       0.9348   -1.9652   -0.0857
    22          C       2.4522    0.2331   -1.2337
    23          H       2.5713   -0.2788   -2.2049
    24          H       2.7766    1.2726   -1.4014
    25          H       3.1671   -0.2309   -0.5384


    FIRST DERIVATIVES WILL BE USED IN THE CALCULATION OF SECOND DERIVATIVES

          ESTIMATED TIME TO COMPLETE CALCULATION =        2.34 SECONDS

    FOR POINT-GROUP C1   THERE ARE   1 UNIQUE SYMMETRY FUNCTIONS.

 STEP:   1 TIME =     0.02 SECS, INTEGRAL =      0.02 TIME LEFT: 172799.96
 STEP:   2 TIME =     0.02 SECS, INTEGRAL =      0.04 TIME LEFT: 172799.95
 STEP:   3 TIME =     0.02 SECS, INTEGRAL =      0.05 TIME LEFT: 172799.93
 STEP:   4 TIME =     0.02 SECS, INTEGRAL =      0.07 TIME LEFT: 172799.92
 STEP:   5 TIME =     0.02 SECS, INTEGRAL =      0.08 TIME LEFT: 172799.90
 STEP:   6 TIME =     0.02 SECS, INTEGRAL =      0.10 TIME LEFT: 172799.89
 STEP:   7 TIME =     0.03 SECS, INTEGRAL =      0.12 TIME LEFT: 172799.86
 STEP:   8 TIME =     0.02 SECS, INTEGRAL =      0.14 TIME LEFT: 172799.84
 STEP:   9 TIME =     0.03 SECS, INTEGRAL =      0.17 TIME LEFT: 172799.82
 STEP:  10 TIME =     0.01 SECS, INTEGRAL =      0.18 TIME LEFT: 172799.80
 STEP:  11 TIME =     0.02 SECS, INTEGRAL =      0.20 TIME LEFT: 172799.79
 STEP:  12 TIME =     0.02 SECS, INTEGRAL =      0.21 TIME LEFT: 172799.77
 STEP:  13 TIME =     0.02 SECS, INTEGRAL =      0.23 TIME LEFT: 172799.76
 STEP:  14 TIME =     0.02 SECS, INTEGRAL =      0.25 TIME LEFT: 172799.74
 STEP:  15 TIME =     0.02 SECS, INTEGRAL =      0.26 TIME LEFT: 172799.72
 STEP:  16 TIME =     0.02 SECS, INTEGRAL =      0.28 TIME LEFT: 172799.71
 STEP:  17 TIME =     0.02 SECS, INTEGRAL =      0.29 TIME LEFT: 172799.69
 STEP:  18 TIME =     0.03 SECS, INTEGRAL =      0.32 TIME LEFT: 172799.66
 STEP:  19 TIME =     0.02 SECS, INTEGRAL =      0.34 TIME LEFT: 172799.65
 STEP:  20 TIME =     0.02 SECS, INTEGRAL =      0.35 TIME LEFT: 172799.63
 STEP:  21 TIME =     0.02 SECS, INTEGRAL =      0.37 TIME LEFT: 172799.61
 STEP:  22 TIME =     0.03 SECS, INTEGRAL =      0.40 TIME LEFT: 172799.58
 STEP:  23 TIME =     0.02 SECS, INTEGRAL =      0.43 TIME LEFT: 172799.56
 STEP:  24 TIME =     0.02 SECS, INTEGRAL =      0.45 TIME LEFT: 172799.54
 STEP:  25 TIME =     0.01 SECS, INTEGRAL =      0.46 TIME LEFT: 172799.53
 STEP:  26 TIME =     0.02 SECS, INTEGRAL =      0.47 TIME LEFT: 172799.51
 STEP:  27 TIME =     0.02 SECS, INTEGRAL =      0.49 TIME LEFT: 172799.50
 STEP:  28 TIME =     0.02 SECS, INTEGRAL =      0.50 TIME LEFT: 172799.48
 STEP:  29 TIME =     0.03 SECS, INTEGRAL =      0.53 TIME LEFT: 172799.45
 STEP:  30 TIME =     0.01 SECS, INTEGRAL =      0.54 TIME LEFT: 172799.44
 STEP:  31 TIME =     0.02 SECS, INTEGRAL =      0.57 TIME LEFT: 172799.42
 STEP:  32 TIME =     0.02 SECS, INTEGRAL =      0.59 TIME LEFT: 172799.39
 STEP:  33 TIME =     0.02 SECS, INTEGRAL =      0.61 TIME LEFT: 172799.37
 STEP:  34 TIME =     0.02 SECS, INTEGRAL =      0.63 TIME LEFT: 172799.35
 STEP:  35 TIME =     0.03 SECS, INTEGRAL =      0.66 TIME LEFT: 172799.32
 STEP:  36 TIME =     0.03 SECS, INTEGRAL =      0.69 TIME LEFT: 172799.29
 STEP:  37 TIME =     0.02 SECS, INTEGRAL =      0.71 TIME LEFT: 172799.27
 STEP:  38 TIME =     0.02 SECS, INTEGRAL =      0.73 TIME LEFT: 172799.25
 STEP:  39 TIME =     0.02 SECS, INTEGRAL =      0.76 TIME LEFT: 172799.23
 STEP:  40 TIME =     0.02 SECS, INTEGRAL =      0.77 TIME LEFT: 172799.21
 STEP:  41 TIME =     0.02 SECS, INTEGRAL =      0.79 TIME LEFT: 172799.20
 STEP:  42 TIME =     0.02 SECS, INTEGRAL =      0.80 TIME LEFT: 172799.18
 STEP:  43 TIME =     0.02 SECS, INTEGRAL =      0.83 TIME LEFT: 172799.16
 STEP:  44 TIME =     0.02 SECS, INTEGRAL =      0.84 TIME LEFT: 172799.14
 STEP:  45 TIME =     0.02 SECS, INTEGRAL =      0.86 TIME LEFT: 172799.12
 STEP:  46 TIME =     0.02 SECS, INTEGRAL =      0.89 TIME LEFT: 172799.10
 STEP:  47 TIME =     0.03 SECS, INTEGRAL =      0.92 TIME LEFT: 172799.07
 STEP:  48 TIME =     0.03 SECS, INTEGRAL =      0.95 TIME LEFT: 172799.04
 STEP:  49 TIME =     0.02 SECS, INTEGRAL =      0.96 TIME LEFT: 172799.02
 STEP:  50 TIME =     0.02 SECS, INTEGRAL =      0.98 TIME LEFT: 172799.00
 STEP:  51 TIME =     0.02 SECS, INTEGRAL =      1.00 TIME LEFT: 172798.98
 STEP:  52 TIME =     0.02 SECS, INTEGRAL =      1.02 TIME LEFT: 172798.97
 STEP:  53 TIME =     0.02 SECS, INTEGRAL =      1.04 TIME LEFT: 172798.95
 STEP:  54 TIME =     0.02 SECS, INTEGRAL =      1.06 TIME LEFT: 172798.93
 STEP:  55 TIME =     0.03 SECS, INTEGRAL =      1.09 TIME LEFT: 172798.89
 STEP:  56 TIME =     0.03 SECS, INTEGRAL =      1.12 TIME LEFT: 172798.87
 STEP:  57 TIME =     0.03 SECS, INTEGRAL =      1.14 TIME LEFT: 172798.84
 STEP:  58 TIME =     0.02 SECS, INTEGRAL =      1.16 TIME LEFT: 172798.82
 STEP:  59 TIME =     0.03 SECS, INTEGRAL =      1.19 TIME LEFT: 172798.79
 STEP:  60 TIME =     0.02 SECS, INTEGRAL =      1.21 TIME LEFT: 172798.78
 STEP:  61 TIME =     0.02 SECS, INTEGRAL =      1.23 TIME LEFT: 172798.75
 STEP:  62 TIME =     0.03 SECS, INTEGRAL =      1.26 TIME LEFT: 172798.73
 STEP:  63 TIME =     0.03 SECS, INTEGRAL =      1.29 TIME LEFT: 172798.70
 STEP:  64 TIME =     0.03 SECS, INTEGRAL =      1.31 TIME LEFT: 172798.67
 STEP:  65 TIME =     0.03 SECS, INTEGRAL =      1.34 TIME LEFT: 172798.64
 STEP:  66 TIME =     0.03 SECS, INTEGRAL =      1.38 TIME LEFT: 172798.61
 STEP:  67 TIME =     0.02 SECS, INTEGRAL =      1.39 TIME LEFT: 172798.59
 STEP:  68 TIME =     0.02 SECS, INTEGRAL =      1.41 TIME LEFT: 172798.58
 STEP:  69 TIME =     0.01 SECS, INTEGRAL =      1.42 TIME LEFT: 172798.57
 STEP:  70 TIME =     0.02 SECS, INTEGRAL =      1.44 TIME LEFT: 172798.54
 STEP:  71 TIME =     0.02 SECS, INTEGRAL =      1.46 TIME LEFT: 172798.52
 STEP:  72 TIME =     0.02 SECS, INTEGRAL =      1.48 TIME LEFT: 172798.51
 STEP:  73 TIME =     0.02 SECS, INTEGRAL =      1.50 TIME LEFT: 172798.49
 STEP:  74 TIME =     0.02 SECS, INTEGRAL =      1.52 TIME LEFT: 172798.47
 STEP:  75 TIME =     0.03 SECS, INTEGRAL =      1.54 TIME LEFT: 172798.44

(To convert to Hartree/Bohr^2, multiply by (10^(-21) x N x a0^2)/(4.184 x 627.51) =  0.0642)


           FORCE MATRIX IN MILLIDYNES/ANGSTROM


                  C  1       H  2       C  3       H  4       C  5       H  6
 ------------------------------------------------------------------------------
     C    1  14.270477
     H    2   3.378805   4.267031
     C    3   6.830004   0.764031  15.015522
     H    4   0.783497   0.085585   3.437150   4.363134
     C    5   2.163367   0.181015   5.557000   0.774034  15.090607
     H    6   0.112428   0.007282   0.758037   0.033714   3.428200   4.325278
     C    7   1.365638   0.153330   2.299932   0.095367   6.906416   0.773112
     H    8   0.157850   0.027171   0.204076   0.005838   0.801893   0.082387
     H    9   0.025821   0.005888   0.098885   0.007607   0.754017   0.045956
     C   10   3.911811   0.669094   0.866108   0.054750   0.130983   0.013742
     H   11   0.732952   0.019629   0.040259   0.003333   0.018190   0.002137
     H   12   0.723647   0.016708   0.028481   0.013163   0.018385   0.002124
     H   13   0.737221   0.039731   0.037465   0.018574   0.027965   0.002612
     O   14   0.123277   0.008286   0.075433   0.017091   0.062139   0.021785
     C   15   0.233185   0.023623   0.185090   0.031542   0.194029   0.030577
     C   16   0.409974   0.034462   0.243233   0.031498   0.259327   0.044304
     C   17   1.551252   0.161548   1.689022   0.040997   2.059773   0.082366
     O   18   0.038652   0.007638   0.043563   0.009099   0.054214   0.017774
     C   19   1.751664   0.426157   1.803812   0.045442   1.624431   0.064659
     O   20   0.093820   0.008772   0.101571   0.016745   0.087996   0.011843
     H   21   0.383515   0.030622   0.172327   0.006093   0.166581   0.007683
     C   22   0.155491   0.019447   0.170344   0.009483   0.185147   0.013497
     H   23   0.024583   0.002461   0.023160   0.000731   0.025697   0.001285
     H   24   0.012131   0.002456   0.011943   0.001837   0.013371   0.002489
     H   25   0.012183   0.004993   0.014275   0.001958   0.014135   0.002280


                  C  7       H  8       H  9       C 10       H 11       H 12
 ------------------------------------------------------------------------------
     C    7  13.085354
     H    8   3.464961   4.236566
     H    9   3.511852   0.444218   4.259164
     C   10   0.063739   0.010905   0.009265  11.624426
     H   11   0.014829   0.002547   0.001640   3.420286   4.215586
     H   12   0.008641   0.002074   0.000990   3.352393   0.459063   4.166663
     H   13   0.028048   0.003443   0.002259   3.335624   0.450198   0.454911
     O   14   0.106905   0.008293   0.017391   0.054837   0.013231   0.006224
     C   15   0.390571   0.028716   0.077656   0.049033   0.010963   0.008008
     C   16   0.386577   0.040102   0.023440   0.140759   0.031198   0.016857
     C   17   2.281439   0.499013   0.223941   0.049443   0.013012   0.007832
     O   18   0.061382   0.008708   0.031809   0.022012   0.005434   0.003836
     C   19   1.779880   0.176623   0.041781   0.194955   0.014791   0.015993
     O   20   0.102639   0.014445   0.008005   0.098334   0.015643   0.009486
     H   21   0.174692   0.016742   0.005335   0.022142   0.019574   0.003516
     C   22   0.520288   0.035235   0.018392   0.020033   0.005620   0.003499
     H   23   0.042772   0.003974   0.002546   0.003967   0.001267   0.000678
     H   24   0.028416   0.014583   0.025267   0.004433   0.001163   0.000987
     H   25   0.015925   0.025916   0.005844   0.006622   0.001886   0.001242


                  H 13       O 14       C 15       C 16       C 17       O 18
 ------------------------------------------------------------------------------
     H   13   4.137482
     O   14   0.032360   8.983930
     C   15   0.025557   3.597906  18.536261
     C   16   0.108386   3.192368   2.377285  18.816219
     C   17   0.026680   1.146528   2.776682   1.519631  14.535016
     O   18   0.008961   1.859432  12.755393   0.442107   1.010016  14.773306
     C   19   0.037064   1.256247   1.237568   3.523708   6.174486   0.122934
     O   20   0.054666   1.828098   0.421515  12.655582   0.149606   0.127763
     H   21   0.007776   0.058512   0.089095   0.615294   0.749216   0.014958
     C   22   0.006138   0.117043   0.501383   0.124960   4.020063   0.053519
     H   23   0.001223   0.021025   0.044848   0.024821   0.734610   0.016119
     H   24   0.001260   0.025625   0.063071   0.026333   0.712948   0.028186
     H   25   0.001474   0.015305   0.035755   0.019522   0.733766   0.005974


                  C 19       O 20       H 21       C 22       H 23       H 24
 ------------------------------------------------------------------------------
     C   19  13.554460
     O   20   1.144097  14.700567
     H   21   3.544992   0.035653   4.376786
     C   22   0.739248   0.034208   0.048540  11.647407
     H   23   0.039332   0.009109   0.011403   3.338160   4.151579
     H   24   0.047596   0.005401   0.003275   3.383077   0.454623   4.184772
     H   25   0.020754   0.005730   0.011654   3.398183   0.454476   0.453193


                  H 25
 ------------------
     H   25   4.203710


          HEAT OF FORMATION =     -61.049443 KCALS/MOLE

          ZERO POINT ENERGY     117.485 KCAL/MOL

         NOTE: SYSTEM IS NOT A GROUND STATE, THEREFORE ZERO POINT
         ENERGY IS NOT MEANINGFULL. ZERO POINT ENERGY PRINTED
         DOES NOT INCLUDE THE  1 IMAGINARY FREQUENCIES


           NORMAL COORDINATE ANALYSIS (Total motion = 1 Angstrom)


   Root No.       1         2         3         4         5         6         7         8

                 1 A       2 A       3 A       4 A       5 A       6 A       7 A       8 A   

                -724.5      51.2      97.1     122.1     126.1     144.6     157.7     175.6
  
           1    0.0163    0.0224    0.0056    0.0058   -0.0205    0.0109    0.0025   -0.0068
           2   -0.0191   -0.0078    0.0087    0.0150   -0.0077    0.0133   -0.0029   -0.0131
           3   -0.0786   -0.0023    0.0061   -0.0194   -0.0122   -0.0079   -0.0038    0.0338
           4    0.0179    0.0226    0.0058    0.0061   -0.0205    0.0111    0.0025   -0.0075
           5    0.0096    0.0162    0.0116    0.0316   -0.0020    0.0151   -0.0058   -0.0147
           6    0.0535   -0.0130   -0.0035   -0.0096    0.0070   -0.0086   -0.0047    0.0070
           7   -0.0009   -0.0024    0.0051   -0.0118   -0.0263    0.0107    0.0056   -0.0124
           8    0.0267   -0.0223    0.0083    0.0054   -0.0105    0.0137   -0.0009   -0.0179
           9   -0.0095    0.0064    0.0009   -0.0319   -0.0371    0.0126   -0.0001    0.0079
          10    0.0139    0.0006    0.0062   -0.0140   -0.0337    0.0146    0.0062   -0.0107
          11   -0.0049   -0.0446    0.0111   -0.0067   -0.0128    0.0105    0.0004   -0.0145
          12    0.0397    0.0163    0.0035   -0.0396   -0.0611    0.0253    0.0019    0.0139
          13   -0.0205   -0.0312    0.0077   -0.0222   -0.0163    0.0006    0.0054   -0.0182
          14   -0.0170   -0.0115    0.0042    0.0078   -0.0124    0.0183   -0.0006   -0.0291
          15    0.0114    0.0020   -0.0052   -0.0365   -0.0306    0.0123   -0.0002   -0.0184
          16    0.0308   -0.0508    0.0107   -0.0321   -0.0135   -0.0054    0.0046   -0.0204
          17    0.0271   -0.0267    0.0060   -0.0027   -0.0125    0.0150   -0.0014   -0.0334
          18    0.0423    0.0037   -0.0086   -0.0539   -0.0459    0.0213   -0.0013   -0.0354
          19    0.0006   -0.0345    0.0079   -0.0157   -0.0047   -0.0058    0.0055   -0.0147
          20   -0.0673    0.0149   -0.0027    0.0171   -0.0139    0.0249   -0.0001   -0.0335
          21   -0.0790   -0.0037   -0.0059   -0.0205   -0.0072    0.0001    0.0008   -0.0186
          22    0.0191   -0.0197    0.0064   -0.0130   -0.0124    0.0011    0.0042   -0.0131
          23    0.0427    0.0346   -0.0035    0.0300   -0.0145    0.0283    0.0010   -0.0191
          24    0.0557   -0.0047   -0.0041   -0.0081    0.0075   -0.0095    0.0043    0.0016
          25   -0.0156   -0.0559    0.0109   -0.0204    0.0075   -0.0160    0.0074   -0.0126
          26   -0.0273    0.0192   -0.0056    0.0119   -0.0115    0.0217   -0.0036   -0.0282
          27   -0.0334   -0.0105   -0.0090   -0.0320    0.0042   -0.0105   -0.0031   -0.0106
          28    0.0023    0.0551    0.0130    0.0254   -0.0200    0.0132   -0.0007    0.0003
          29    0.0033   -0.0223    0.0110    0.0094   -0.0078    0.0087   -0.0022   -0.0019
          30   -0.0134    0.0047    0.0234   -0.0043   -0.0130   -0.0164   -0.0063    0.0788
          31   -0.0088    0.1030    0.1129   -0.0064    0.0307   -0.0003    0.0006   -0.0328
          32   -0.0119   -0.0081    0.0136    0.0134   -0.0055    0.0117   -0.0029   -0.0116
          33    0.0053    0.0572    0.2123   -0.0789    0.0795   -0.0525   -0.0017    0.0420
          34    0.0119    0.0057   -0.1761    0.1189   -0.1193    0.0461   -0.0077    0.0748
          35    0.0354    0.0034    0.1122   -0.0216    0.0382   -0.0150   -0.0011    0.0039
          36   -0.0110    0.0000    0.0058    0.0056   -0.0226   -0.0138   -0.0071    0.0889
          37   -0.0033    0.0794    0.0938   -0.0115    0.0213    0.0009    0.0019   -0.0295
          38   -0.0023   -0.0715   -0.0858    0.0301   -0.0552    0.0239   -0.0019    0.0129
          39   -0.0028   -0.0375   -0.1346    0.0746   -0.0948    0.0090   -0.0121    0.1421
          40    0.0056    0.0013   -0.0031    0.0027    0.0030   -0.0334   -0.0029    0.0060
          41   -0.0037    0.0163   -0.0021    0.0027    0.0185    0.0772    0.0023    0.0192
          42   -0.0014   -0.0093   -0.0067    0.0158    0.0519    0.1517    0.0029    0.0017
          43    0.0030    0.0114   -0.0040    0.0068    0.0061   -0.0039   -0.0014    0.0037
          44   -0.0014   -0.0006    0.0032   -0.0007    0.0034    0.0028   -0.0017    0.0130
          45    0.0011   -0.0138    0.0098    0.0217    0.0091    0.0236    0.0016   -0.0044
          46    0.0065   -0.0162   -0.0045   -0.0038    0.0155   -0.0111   -0.0041    0.0095
          47   -0.0023    0.0202   -0.0066   -0.0060    0.0065    0.0027   -0.0000    0.0077
          48    0.0012    0.0025   -0.0148    0.0009    0.0255    0.0070   -0.0007   -0.0092
          49    0.0060   -0.0031   -0.0049    0.0045    0.0159   -0.0056   -0.0021    0.0052
          50    0.0745   -0.0050   -0.0055   -0.0212   -0.0002   -0.0082   -0.0038    0.0096
          51    0.0849    0.0015    0.0015   -0.0036   -0.0102    0.0074    0.0003   -0.0024
          52   -0.0014    0.0270   -0.0055    0.0045    0.0012    0.0178    0.0034    0.0154
          53   -0.0011   -0.0101    0.0164    0.0216   -0.0034   -0.0561   -0.0015    0.0139
          54   -0.0022   -0.0298    0.0328    0.0606   -0.0032   -0.0784    0.0020   -0.0034
          55   -0.0184   -0.0150   -0.0085   -0.0023    0.0222   -0.0105   -0.0033    0.0050
          56    0.0116    0.0011   -0.0039   -0.0160   -0.0044   -0.0041   -0.0032    0.0048
          57    0.0876    0.0008    0.0014   -0.0004   -0.0106    0.0092   -0.0015   -0.0091
          58    0.0001   -0.0275   -0.0019   -0.0065    0.0142    0.0166   -0.0059    0.0077
          59    0.0003    0.0366   -0.0155   -0.0039    0.0121   -0.0598    0.0016    0.0070
          60   -0.0015    0.0148   -0.0378   -0.0048    0.0458   -0.1222   -0.0027   -0.0248
          61    0.0131   -0.0265   -0.0114   -0.0081    0.0240   -0.0143   -0.0046    0.0038
          62   -0.0044   -0.0065   -0.0042   -0.0205   -0.0039   -0.0093   -0.0044    0.0079
          63   -0.0783   -0.0062    0.0083   -0.0062   -0.0162   -0.0024   -0.0036    0.0008
          64   -0.0049    0.0054   -0.0066    0.0083    0.0109   -0.0027   -0.0013   -0.0042
          65   -0.0047   -0.0131   -0.0152   -0.0339    0.0131   -0.0223    0.0105    0.0120
          66   -0.0024    0.0257   -0.0056    0.0080   -0.0214    0.0162    0.0065   -0.0334
          67   -0.0429    0.0194   -0.0153    0.0143    0.0082   -0.0048    0.0758   -0.0222
          68   -0.0192   -0.0120   -0.0177   -0.0431    0.0157   -0.0121   -0.2317   -0.0031
          69    0.0060    0.0269   -0.0054    0.0136   -0.0231    0.0104    0.1447   -0.0276
          70    0.0158    0.0146    0.0000    0.0173   -0.0009    0.0143   -0.1123   -0.0178
          71   -0.0141   -0.0147   -0.0178   -0.0376    0.0167   -0.0257    0.0049    0.0125
          72   -0.0235    0.0332   -0.0085    0.0033   -0.0224    0.0294   -0.2506   -0.0573
          73   -0.0001   -0.0097   -0.0064   -0.0016    0.0210   -0.0137    0.0355    0.0151
          74   -0.0095   -0.0185   -0.0195   -0.0332    0.0195   -0.0413    0.2652    0.0298
          75   -0.0114    0.0377   -0.0086    0.0190   -0.0275    0.0152    0.1386   -0.0420


   Root No.       9        10        11        12        13        14        15        16

                 9 A      10 A      11 A      12 A      13 A      14 A      15 A      16 A   

                 210.6     241.0     263.1     298.3     313.4     369.1     398.3     436.3
  
           1    0.0030    0.0144    0.0140    0.0217    0.0112   -0.0078    0.0347    0.0423
           2   -0.0071   -0.0223   -0.0090   -0.0257    0.0101   -0.0015    0.0092    0.0072
           3    0.0110   -0.0128   -0.0259    0.0091    0.0637   -0.0007   -0.0183    0.0121
           4    0.0014    0.0126    0.0130    0.0197    0.0103   -0.0072    0.0317    0.0388
           5   -0.0280   -0.0490   -0.0245   -0.0357    0.0092   -0.0105   -0.0056    0.0146
           6   -0.0122   -0.0329   -0.0315    0.0513    0.0714   -0.0367   -0.0462    0.0641
           7    0.0189    0.0286    0.0209    0.0192    0.0118    0.0055    0.0124   -0.0002
           8    0.0021   -0.0136   -0.0030   -0.0282    0.0076    0.0048   -0.0030   -0.0179
           9    0.0513   -0.0073   -0.0047   -0.0356    0.0158    0.0045    0.0261   -0.0210
          10    0.0339    0.0332    0.0267    0.0013    0.0074    0.0128    0.0303   -0.0171
          11    0.0060   -0.0098   -0.0063   -0.0468    0.0174    0.0204   -0.0237   -0.0601
          12    0.1048    0.0126    0.0172   -0.0860    0.0020    0.0264    0.0825   -0.0746
          13   -0.0170    0.0099    0.0019    0.0020    0.0030    0.0064   -0.0341   -0.0091
          14    0.0017   -0.0132    0.0031   -0.0074   -0.0181   -0.0064   -0.0101    0.0018
          15    0.0194   -0.0194   -0.0044   -0.0110   -0.0507   -0.0224   -0.0257    0.0220
          16   -0.0359   -0.0045   -0.0090   -0.0326   -0.0173    0.0037   -0.0594    0.0111
          17   -0.0079   -0.0245   -0.0043   -0.0348   -0.0445   -0.0120   -0.0450    0.0219
          18    0.0457   -0.0238    0.0015   -0.0240   -0.1245   -0.0447   -0.1034    0.0712
          19   -0.0430    0.0074   -0.0020    0.0086    0.0133    0.0094   -0.0032   -0.0192
          20    0.0219    0.0050    0.0179    0.0559   -0.0156   -0.0096   -0.0159   -0.0328
          21   -0.0416   -0.0235   -0.0093    0.0172   -0.0270   -0.0133    0.0486   -0.0033
          22   -0.0112    0.0171    0.0080    0.0265    0.0152    0.0056   -0.0319   -0.0354
          23    0.0558    0.0257    0.0309    0.0713    0.0134   -0.0077   -0.0279   -0.0711
          24   -0.0552   -0.0118   -0.0109   -0.0010    0.0130   -0.0012    0.0887   -0.0245
          25   -0.0900   -0.0092   -0.0203   -0.0221    0.0114    0.0161    0.0397    0.0050
          26    0.0251    0.0096    0.0179    0.0651   -0.0224   -0.0127   -0.0305   -0.0334
          27   -0.0678   -0.0278   -0.0216    0.0130   -0.0411   -0.0152    0.0563    0.0136
          28   -0.0322   -0.0240   -0.0135   -0.0225    0.0009    0.0021   -0.0044   -0.0047
          29    0.0009    0.0070    0.0136   -0.0092   -0.0125   -0.0065    0.0343    0.0276
          30   -0.0173    0.0240    0.0075    0.0061   -0.0301   -0.0045   -0.0122   -0.0070
          31   -0.0424   -0.0546   -0.0357   -0.0488    0.0135    0.0113   -0.0382   -0.0400
          32   -0.0084   -0.0212   -0.0086   -0.0288    0.0091    0.0002    0.0089    0.0044
          33   -0.0088    0.0494    0.0321    0.0147   -0.0724   -0.0076    0.0009   -0.0041
          34   -0.0696   -0.0253   -0.0134   -0.0353   -0.0391   -0.0025   -0.0197   -0.0264
          35   -0.0076    0.0459    0.0492   -0.0006   -0.0925   -0.0127    0.0516    0.0264
          36   -0.0229    0.0263    0.0099    0.0049   -0.0411   -0.0059   -0.0130   -0.0097
          37   -0.0217   -0.0286   -0.0173   -0.0218    0.0159    0.0050   -0.0063   -0.0042
          38    0.0256    0.0270    0.0256    0.0214    0.0145   -0.0160    0.0687    0.0726
          39   -0.0489    0.0283    0.0132   -0.0030   -0.0731   -0.0093   -0.0197   -0.0224
          40    0.0087   -0.0068   -0.0021    0.0015   -0.0020   -0.0583    0.0028   -0.0087
          41    0.0009    0.0049   -0.0071   -0.0023   -0.0007    0.0271   -0.0009    0.0054
          42    0.0038    0.0071    0.0041   -0.0090    0.0005   -0.0231   -0.0021   -0.0011
          43    0.0079   -0.0073    0.0034    0.0009   -0.0065   -0.0337    0.0017    0.0023
          44   -0.0004    0.0064   -0.0197    0.0060   -0.0033    0.0204    0.0057   -0.0103
          45   -0.0030   -0.0064    0.0142    0.0057    0.0009   -0.0074    0.0074   -0.0228
          46    0.0120   -0.0009   -0.0118   -0.0021   -0.0017   -0.0246    0.0021   -0.0098
          47   -0.0006    0.0002   -0.0142    0.0107   -0.0002    0.0171   -0.0012    0.0158
          48    0.0020   -0.0075   -0.0018    0.0114    0.0086   -0.0131   -0.0062    0.0135
          49    0.0093   -0.0008   -0.0028   -0.0056   -0.0033   -0.0420   -0.0000    0.0001
          50   -0.0063    0.0095   -0.0225    0.0101    0.0008    0.0213    0.0043   -0.0176
          51   -0.0135   -0.0067    0.0095    0.0148    0.0116   -0.0017    0.0082   -0.0310
          52    0.0074   -0.0338    0.0434    0.0032   -0.0014    0.1034   -0.0040    0.0012
          53    0.0084    0.0077   -0.0191    0.0001   -0.0012    0.0237   -0.0020    0.0071
          54    0.0121   -0.0054    0.0174   -0.0044    0.0043    0.0042   -0.0061    0.0079
          55    0.0110    0.0008   -0.0064   -0.0035   -0.0050   -0.0335    0.0030   -0.0081
          56   -0.0029   -0.0002   -0.0259    0.0185    0.0047    0.0191   -0.0044    0.0111
          57   -0.0052   -0.0226   -0.0017    0.0345    0.0168   -0.0265   -0.0101    0.0240
          58    0.0132   -0.0000   -0.0263    0.0063   -0.0122    0.0743    0.0021    0.0069
          59   -0.0012    0.0014    0.0028   -0.0029    0.0075   -0.0834    0.0011   -0.0086
          60    0.0056    0.0047   -0.0036   -0.0054   -0.0113    0.0621    0.0034   -0.0036
          61    0.0110    0.0036   -0.0136   -0.0023   -0.0054   -0.0387    0.0037   -0.0213
          62   -0.0014   -0.0009   -0.0335    0.0167    0.0120    0.0153   -0.0085    0.0072
          63    0.0009   -0.0343   -0.0191    0.0293    0.0454   -0.0295   -0.0298    0.0431
          64    0.0079    0.0229   -0.0141   -0.0181   -0.0030   -0.0338   -0.0069    0.0106
          65   -0.0189    0.0027    0.0633   -0.0191    0.0197   -0.0074   -0.0111    0.0070
          66   -0.0207    0.0559   -0.0037   -0.0194    0.0138    0.0283   -0.0092    0.0013
          67    0.0005    0.0674   -0.0023   -0.0548    0.0018   -0.0228   -0.0277    0.0514
          68   -0.0331    0.0098    0.1212   -0.0365    0.0375   -0.0154   -0.0211    0.0212
          69   -0.0142    0.0583   -0.0327   -0.0156    0.0053    0.0340   -0.0072    0.0000
          70    0.0122    0.0449   -0.0717   -0.0052   -0.0111   -0.0029    0.0015   -0.0061
          71   -0.0227   -0.0007    0.0897   -0.0272    0.0249   -0.0171   -0.0161    0.0164
          72   -0.0347    0.0819    0.0377   -0.0430    0.0288    0.0312   -0.0210    0.0222
          73    0.0085   -0.0176    0.0217   -0.0071    0.0004   -0.0643   -0.0016    0.0006
          74   -0.0134   -0.0131    0.0691   -0.0213    0.0147   -0.0253   -0.0133    0.0158
          75   -0.0175    0.0884   -0.0384   -0.0325    0.0067    0.0491   -0.0162    0.0179


   Root No.      17        18        19        20        21        22        23        24

                17 A      18 A      19 A      20 A      21 A      22 A      23 A      24 A   

                 459.9     551.0     587.5     616.9     622.2     650.5     697.9     785.0
  
           1   -0.0280    0.0048    0.0026   -0.0010   -0.0052   -0.0014   -0.0004    0.0005
           2   -0.0126    0.0047    0.0061   -0.0209   -0.0014    0.0076   -0.0017    0.0031
           3   -0.0378    0.0198    0.0085    0.0109   -0.0161   -0.0092   -0.0158    0.0059
           4   -0.0241    0.0036    0.0011    0.0000   -0.0037   -0.0019    0.0014    0.0005
           5   -0.0164    0.0063    0.0163   -0.0704    0.0031    0.0091    0.0142    0.0062
           6   -0.0400    0.0096   -0.0025    0.0095   -0.0032   -0.0680    0.0432   -0.0473
           7    0.0033   -0.0026   -0.0163    0.0527   -0.0013   -0.0168   -0.0028   -0.0115
           8    0.0110   -0.0002   -0.0070    0.0193    0.0009   -0.0124   -0.0031   -0.0102
           9    0.0254   -0.0059    0.0057   -0.0205    0.0010   -0.0016    0.0079   -0.0045
          10    0.0287   -0.0118   -0.0197    0.0552    0.0039   -0.0055    0.0048    0.0257
          11    0.0420   -0.0074   -0.0118    0.0129    0.0068    0.0032    0.0021    0.0236
          12    0.1042   -0.0339   -0.0083    0.0061    0.0158    0.0274    0.0287    0.1095
          13   -0.0011    0.0011    0.0016   -0.0302    0.0034    0.0102    0.0026   -0.0006
          14   -0.0083    0.0019   -0.0189    0.0687   -0.0005   -0.0199   -0.0129   -0.0226
          15   -0.0236    0.0055    0.0075   -0.0170   -0.0002   -0.0051   -0.0083   -0.0268
          16   -0.0174    0.0040   -0.0020   -0.0222    0.0043    0.0244    0.0047    0.0413
          17   -0.0283    0.0058   -0.0217    0.0728   -0.0000   -0.0014   -0.0089    0.0325
          18   -0.0743    0.0144   -0.0079    0.0335   -0.0040    0.0329    0.0052    0.1165
          19    0.0116   -0.0035    0.0072   -0.0241    0.0005   -0.0059   -0.0021    0.0001
          20    0.0091   -0.0008    0.0074   -0.0099   -0.0027   -0.0131   -0.0017    0.0158
          21    0.0152   -0.0112    0.0069   -0.0009    0.0003   -0.0240   -0.0076   -0.0154
          22    0.0031    0.0117    0.0323   -0.1121    0.0045    0.0053   -0.0110   -0.0365
          23    0.0010    0.0300    0.0509   -0.1159    0.0030   -0.0320   -0.0481   -0.1151
          24    0.0164    0.0045    0.0166    0.0384   -0.0012   -0.0732   -0.0590   -0.1207
          25    0.0152   -0.0215   -0.0271    0.1074   -0.0108   -0.0173    0.0083    0.0730
          26   -0.0004   -0.0020    0.0270   -0.0460   -0.0169   -0.0027    0.0058    0.1030
          27    0.0051   -0.0267    0.0128    0.0361   -0.0301   -0.0174    0.0141    0.1765
          28    0.0003    0.0013    0.0006   -0.0066    0.0013    0.0024    0.0007    0.0032
          29   -0.0204    0.0032    0.0099   -0.0378    0.0003    0.0166   -0.0001    0.0077
          30    0.0047    0.0003    0.0003    0.0111   -0.0006   -0.0076   -0.0027   -0.0001
          31    0.0169   -0.0014   -0.0039    0.0075   -0.0001    0.0003   -0.0062   -0.0022
          32   -0.0144    0.0068    0.0079   -0.0267   -0.0025    0.0127   -0.0079    0.0085
          33    0.0195   -0.0174   -0.0023    0.0026    0.0059   -0.0006    0.0111   -0.0142
          34    0.0294   -0.0096   -0.0054   -0.0062    0.0158    0.0029    0.0127   -0.0136
          35    0.0102   -0.0224    0.0054   -0.0543    0.0170    0.0264    0.0241   -0.0152
          36    0.0103   -0.0037   -0.0004    0.0083    0.0026   -0.0058    0.0012   -0.0051
          37   -0.0046    0.0046    0.0006   -0.0008   -0.0023    0.0001   -0.0039    0.0057
          38   -0.0576    0.0166    0.0174   -0.0463   -0.0065    0.0129   -0.0024    0.0240
          39    0.0300   -0.0145   -0.0039    0.0048    0.0100   -0.0021    0.0098   -0.0164
          40   -0.0017    0.0062   -0.0538   -0.0066   -0.0870    0.0158   -0.0068    0.0077
          41    0.0047    0.0330   -0.0125   -0.0058    0.0275   -0.0343   -0.0026   -0.0007
          42   -0.0054   -0.0238   -0.0054   -0.0053   -0.0325   -0.0441   -0.0019    0.0053
          43    0.0185    0.0570   -0.0256   -0.0052   -0.0666   -0.0260   -0.0206    0.0146
          44   -0.0163    0.0055   -0.0349    0.0019   -0.0672    0.0582    0.0562   -0.0136
          45   -0.0257    0.0457    0.0198    0.0191    0.0155    0.1022    0.0883   -0.0039
          46   -0.0210   -0.0413   -0.0251   -0.0037    0.0824   -0.0123    0.0146   -0.0015
          47    0.0336    0.0495    0.0009    0.0047    0.0765    0.0512   -0.0393    0.0041
          48    0.0296   -0.0492   -0.0058    0.0050   -0.0292    0.1220   -0.0807   -0.0060
          49    0.0120    0.0309    0.0487    0.0074   -0.0152   -0.0043   -0.0023   -0.0039
          50   -0.0253   -0.0320    0.0482    0.0089   -0.0335   -0.0084   -0.0245    0.0112
          51   -0.0336    0.0475   -0.0007    0.0016    0.0087   -0.0136   -0.0473    0.0069
          52   -0.0132   -0.0468    0.0171    0.0027   -0.0115    0.0065    0.0065   -0.0019
          53    0.0036   -0.0263   -0.0405   -0.0103   -0.0676   -0.0145   -0.0071   -0.0106
          54    0.0094   -0.0052    0.0264    0.0016    0.0388   -0.0241   -0.0241    0.0092
          55   -0.0165   -0.0401   -0.0015    0.0020    0.0528    0.0131   -0.0045   -0.0031
          56    0.0253   -0.0206    0.0556    0.0090   -0.0362   -0.0053    0.0239    0.0106
          57    0.0504   -0.0197   -0.0291   -0.0054    0.0238   -0.0202    0.0598   -0.0014
          58    0.0115    0.0305   -0.0265   -0.0027    0.0905    0.0079   -0.0068    0.0015
          59   -0.0142   -0.0245   -0.0045    0.0007    0.1022   -0.0056    0.0096    0.0017
          60   -0.0079    0.0232   -0.0043   -0.0033   -0.0282   -0.0332    0.0203    0.0004
          61   -0.0426   -0.1246   -0.0009    0.0008    0.0092   -0.0078    0.0132    0.0017
          62    0.0074   -0.0647    0.0547    0.0066   -0.0538   -0.0334    0.0519    0.0173
          63    0.0494   -0.0294   -0.0350   -0.0152    0.0391   -0.1030    0.1709    0.0148
          64    0.0191    0.0162    0.0759    0.0122   -0.0347   -0.0004    0.0159   -0.0118
          65    0.0098    0.0083    0.0019    0.0001   -0.0128   -0.0013   -0.0020    0.0012
          66   -0.0094   -0.0089   -0.0262   -0.0039    0.0183    0.0059   -0.0087    0.0073
          67    0.0592   -0.0200    0.0429    0.0036   -0.0228    0.0271    0.0876   -0.0319
          68    0.0322    0.0240   -0.0248   -0.0046   -0.0035   -0.0001    0.0155   -0.0100
          69   -0.0153   -0.0220   -0.0144   -0.0022    0.0135    0.0089   -0.0059    0.0089
          70   -0.0086   -0.0338    0.1179    0.0214   -0.0455    0.0014    0.0004   -0.0039
          71    0.0239    0.0237   -0.0177   -0.0042   -0.0073   -0.0007    0.0089   -0.0032
          72    0.0153   -0.0172   -0.0445   -0.0077    0.0255    0.0137    0.0234   -0.0051
          73    0.0190    0.0738    0.0577    0.0091   -0.0325   -0.0162   -0.0112   -0.0075
          74    0.0232    0.0320   -0.0166   -0.0040   -0.0125   -0.0021    0.0079   -0.0051
          75   -0.0004   -0.0561   -0.0210   -0.0037    0.0191    0.0243    0.0284   -0.0014


   Root No.      25        26        27        28        29        30        31        32

                25 A      26 A      27 A      28 A      29 A      30 A      31 A      32 A   

                 847.6     902.4     913.4     964.9     980.2    1015.4    1017.0    1033.3
  
           1    0.0035   -0.0027    0.0059    0.0037    0.0021   -0.0049   -0.0050   -0.0032
           2    0.0001    0.0002   -0.0000   -0.0019   -0.0022    0.0004   -0.0002   -0.0003
           3    0.0064   -0.0014    0.0103   -0.0002   -0.0014    0.0039   -0.0016   -0.0076
           4    0.0031   -0.0016    0.0041    0.0037    0.0020   -0.0033   -0.0030   -0.0027
           5    0.0140   -0.0198    0.0075    0.0344    0.0429   -0.0496   -0.0392   -0.0104
           6    0.0403   -0.1454   -0.0200    0.1609    0.1708   -0.0395    0.0641   -0.0596
           7   -0.0059   -0.0010   -0.0113   -0.0004   -0.0013    0.0183    0.0182   -0.0006
           8    0.0033   -0.0152   -0.0009    0.0009    0.0018    0.0003   -0.0082   -0.0040
           9   -0.0050   -0.0229   -0.0275   -0.0047    0.0025    0.0190   -0.0227    0.0155
          10    0.0169    0.0300    0.0398    0.0266    0.0159   -0.0235    0.0454   -0.0266
          11    0.0152    0.0130    0.0306    0.0177    0.0143   -0.0385    0.0000   -0.0240
          12    0.0652    0.0755    0.1339    0.0798    0.0564   -0.1057    0.0754   -0.0669
          13   -0.0072    0.0030   -0.0068   -0.0061   -0.0053   -0.0119    0.0034    0.0009
          14   -0.0060    0.0043    0.0006   -0.0037   -0.0063   -0.0173   -0.0025   -0.0086
          15   -0.0103   -0.0017   -0.0044   -0.0104   -0.0143   -0.0281    0.0122   -0.0071
          16    0.0220    0.0122    0.0365    0.0249    0.0295    0.0428   -0.0336    0.0021
          17    0.0290    0.0159    0.0444    0.0310    0.0332    0.0518   -0.0405    0.0010
          18    0.0667    0.0383    0.0694    0.0609    0.0769    0.1602   -0.0511    0.0534
          19    0.0062   -0.0037    0.0082    0.0040    0.0041    0.0026   -0.0074    0.0017
          20    0.0143   -0.0087   -0.0027    0.0009    0.0024   -0.0002   -0.0119    0.0128
          21    0.0045    0.0031    0.0127    0.0063    0.0030    0.0063    0.0075   -0.0041
          22    0.0019    0.0061    0.0308    0.0086    0.0019    0.0037    0.0214   -0.0364
          23    0.0083    0.0183    0.0784    0.0281    0.0277    0.0497   -0.0148   -0.0223
          24    0.0046    0.0218    0.0747    0.0314    0.0442    0.0746   -0.0640    0.0349
          25    0.0228   -0.0258   -0.0366   -0.0119    0.0026   -0.0098   -0.0603    0.0559
          26    0.0582   -0.0559   -0.0244   -0.0032   -0.0171   -0.0077    0.0169   -0.0388
          27    0.0872   -0.0886   -0.0550   -0.0128   -0.0278   -0.0136    0.0122   -0.0415
          28   -0.0002    0.0050    0.0019   -0.0035   -0.0008   -0.0128   -0.0220    0.0002
          29   -0.0013    0.0053   -0.0019   -0.0043   -0.0067    0.0176    0.0299    0.0077
          30    0.0037   -0.0031    0.0156   -0.0135   -0.0142   -0.0071    0.0026    0.0105
          31    0.0000   -0.0074   -0.0041   -0.0046   -0.0221    0.0760    0.1333    0.0185
          32    0.0024   -0.0014    0.0087   -0.0201   -0.0354    0.0700    0.1327    0.0300
          33   -0.0087   -0.0065   -0.0325    0.0382    0.0423   -0.0164   -0.0520   -0.0310
          34   -0.0139   -0.0099   -0.0497    0.0401    0.0474    0.0421    0.0396   -0.0274
          35   -0.0244   -0.0063   -0.0832    0.0725    0.0888    0.0066   -0.0536   -0.0589
          36   -0.0012   -0.0062   -0.0032    0.0041    0.0056    0.0014    0.0022   -0.0030
          37    0.0036    0.0034    0.0155   -0.0165   -0.0160   -0.0066    0.0017    0.0115
          38    0.0108    0.0229    0.0427   -0.0352   -0.0261   -0.0840   -0.1192    0.0135
          39   -0.0102   -0.0111   -0.0390    0.0376    0.0339    0.0237    0.0124   -0.0228
          40   -0.0336    0.0006    0.0029    0.0159   -0.0147    0.0093   -0.0094   -0.0141
          41    0.0080    0.0031   -0.0049    0.0682   -0.0360   -0.0010   -0.0036    0.0072
          42   -0.0105   -0.0014    0.0038   -0.0345    0.0152    0.0026    0.0003   -0.0065
          43   -0.0403   -0.0105    0.0049   -0.0088    0.0179   -0.0108    0.0109    0.0157
          44    0.0228    0.0017   -0.0004   -0.0172    0.0105   -0.0023    0.0029    0.0031
          45   -0.0203   -0.0034    0.0032    0.0095   -0.0031   -0.0007    0.0000    0.0006
          46    0.0086    0.0039   -0.0004   -0.0035   -0.0113    0.0067   -0.0065   -0.0087
          47   -0.0155   -0.0046    0.0024   -0.0271    0.0257   -0.0040    0.0050    0.0026
          48    0.0115    0.0107   -0.0085    0.0229   -0.0071    0.0004   -0.0036   -0.0002
          49    0.0197    0.0085   -0.0050   -0.0024   -0.0001    0.0029   -0.0010   -0.0039
          50   -0.0278   -0.0050    0.0015    0.0057    0.0007   -0.0013   -0.0001   -0.0025
          51    0.0289    0.0189   -0.0154   -0.0079    0.0024   -0.0006    0.0005    0.0005
          52    0.0025   -0.0008    0.0009   -0.0094    0.0043    0.0004   -0.0000   -0.0014
          53    0.0380    0.0046   -0.0031   -0.0170    0.0088   -0.0020    0.0026    0.0036
          54   -0.0213   -0.0024    0.0012    0.0075   -0.0040    0.0012   -0.0014   -0.0022
          55    0.0060   -0.0031   -0.0018    0.0199    0.0073   -0.0152    0.0132    0.0238
          56   -0.0458    0.0096    0.0017   -0.0100   -0.0105    0.0114   -0.0031   -0.0226
          57    0.0189   -0.0090    0.0085   -0.0096   -0.0200   -0.0024    0.0030    0.0170
          58   -0.0048   -0.0010    0.0013   -0.0144    0.0025    0.0047   -0.0036   -0.0084
          59   -0.0036   -0.0005    0.0018   -0.0194    0.0044    0.0038   -0.0018   -0.0069
          60    0.0004   -0.0009    0.0006    0.0049   -0.0033   -0.0003    0.0002    0.0012
          61   -0.0283   -0.0119    0.0034    0.0871   -0.0300   -0.0219    0.0272    0.0214
          62   -0.0797    0.0514   -0.0145    0.0383   -0.0025    0.0049    0.0055   -0.0196
          63   -0.0519    0.2217   -0.0854    0.0489    0.0917   -0.0101   -0.0005    0.0265
          64    0.0460    0.0049   -0.0066   -0.0049   -0.0040   -0.0022    0.0001    0.0021
          65   -0.0088    0.0003   -0.0001    0.0023    0.0083   -0.0102    0.0030    0.0279
          66   -0.0057    0.0129   -0.0104   -0.0023   -0.0001   -0.0025    0.0045   -0.0073
          67    0.0234   -0.0768    0.0565    0.0060   -0.0249    0.0347   -0.0298   -0.0381
          68    0.0226   -0.0060    0.0060   -0.0045   -0.0194    0.0209   -0.0104   -0.0490
          69   -0.0222   -0.0004   -0.0012    0.0028    0.0097   -0.0109    0.0053    0.0241
          70   -0.0252   -0.0070    0.0054    0.0172    0.0368   -0.0465    0.0117    0.1388
          71    0.0157   -0.0025    0.0011   -0.0057   -0.0105    0.0122   -0.0046   -0.0335
          72   -0.0044   -0.0258    0.0197   -0.0023   -0.0103    0.0201   -0.0102   -0.0378
          73    0.1085    0.0568   -0.0485   -0.0311   -0.0213    0.0091    0.0080   -0.0721
          74    0.0279    0.0009   -0.0015   -0.0101   -0.0145    0.0162   -0.0047   -0.0447
          75   -0.0556   -0.0476    0.0380    0.0193    0.0058    0.0020   -0.0100    0.0320


   Root No.      33        34        35        36        37        38        39        40

                33 A      34 A      35 A      36 A      37 A      38 A      39 A      40 A   

                1037.8    1052.0    1057.4    1085.1    1136.3    1167.5    1215.4    1227.4
  
           1    0.0012   -0.0000   -0.0039   -0.0026    0.0045    0.0581    0.0014    0.0019
           2    0.0012    0.0011   -0.0039    0.0026    0.0020    0.0308   -0.0048   -0.0002
           3   -0.0043   -0.0108    0.0002    0.0384    0.0132   -0.0078    0.0063   -0.0110
           4    0.0010   -0.0007   -0.0026   -0.0024    0.0036    0.0433    0.0007    0.0022
           5   -0.0128    0.0041    0.0066   -0.0529   -0.0149    0.0007   -0.0098    0.0229
           6   -0.0316   -0.0165    0.0050   -0.1471   -0.0514   -0.0579   -0.0000    0.0547
           7    0.0121    0.0050   -0.0076   -0.0006   -0.0029   -0.0417   -0.0039   -0.0007
           8    0.0142    0.0102   -0.0137   -0.0051    0.0030    0.0023    0.0013   -0.0015
           9   -0.0017    0.0113   -0.0041   -0.0134   -0.0070    0.0134   -0.0004    0.0013
          10   -0.0006   -0.0171    0.0040    0.0092    0.0012   -0.0230   -0.0002    0.0032
          11   -0.0047   -0.0046   -0.0070    0.0238   -0.0007   -0.1707   -0.0343   -0.0176
          12   -0.0358   -0.0579    0.0334    0.0195    0.0070    0.0533    0.0140    0.0151
          13   -0.0088   -0.0058    0.0105    0.0013    0.0023   -0.0063   -0.0065   -0.0008
          14    0.0066    0.0003   -0.0038    0.0048    0.0027    0.0176    0.0023    0.0021
          15    0.0020   -0.0115    0.0200   -0.0003    0.0157   -0.0005   -0.0001   -0.0015
          16    0.0116    0.0318   -0.0532    0.0027   -0.0040    0.0796   -0.0001   -0.0021
          17    0.0172    0.0334   -0.0585    0.0047   -0.0063    0.0725    0.0075    0.0031
          18   -0.0344    0.0210   -0.0211   -0.0054   -0.0160   -0.0618   -0.0022    0.0018
          19   -0.0013   -0.0003    0.0007   -0.0033   -0.0030    0.0182    0.0083    0.0018
          20   -0.0218   -0.0122    0.0191   -0.0058   -0.0124    0.0091    0.0072    0.0006
          21    0.0029    0.0048   -0.0254    0.0039   -0.0275   -0.0073    0.0051    0.0008
          22    0.0684    0.0345   -0.0721    0.0102    0.0107    0.0254    0.0102    0.0008
          23    0.0748    0.0256   -0.0042   -0.0084    0.1409   -0.0036   -0.0097   -0.0170
          24   -0.0179   -0.0217    0.1207   -0.0327    0.1765   -0.0445   -0.0284   -0.0249
          25   -0.0762   -0.0530    0.1334   -0.0299    0.0574    0.0484    0.0123   -0.0043
          26    0.1016    0.0222   -0.0205   -0.0019    0.0752   -0.0163   -0.0115   -0.0079
          27    0.1329    0.0162    0.0165   -0.0115    0.1518   -0.0283   -0.0211   -0.0172
          28    0.0000    0.0048   -0.0012    0.0003   -0.0047   -0.0464    0.0005   -0.0004
          29   -0.0053   -0.0073    0.0126   -0.0015   -0.0029   -0.0364    0.0032   -0.0008
          30    0.0058    0.0124    0.0002   -0.0334   -0.0066    0.0095   -0.0007    0.0018
          31   -0.0041   -0.0242    0.0250   -0.0144    0.0034    0.0282   -0.0148    0.0182
          32   -0.0043   -0.0158    0.0304   -0.0355   -0.0031    0.0114   -0.0019    0.0084
          33   -0.0066   -0.0131   -0.0148    0.0564    0.0107    0.0084   -0.0199    0.0108
          34   -0.0157   -0.0371    0.0039    0.0777    0.0214    0.0359    0.0133   -0.0266
          35   -0.0326   -0.0436   -0.0121    0.1474    0.0279   -0.0376    0.0307   -0.0348
          36   -0.0007   -0.0008   -0.0009    0.0017    0.0020    0.0126    0.0034   -0.0043
          37    0.0032    0.0110    0.0025   -0.0259   -0.0081   -0.0208    0.0081   -0.0128
          38    0.0074    0.0398   -0.0127   -0.0466   -0.0275   -0.1347   -0.0268    0.0133
          39   -0.0088   -0.0253   -0.0022    0.0531    0.0148    0.0241   -0.0124    0.0229
          40    0.0038   -0.0288   -0.0054   -0.0161   -0.0063    0.0004   -0.0103   -0.0663
          41    0.0004   -0.0016   -0.0011    0.0005   -0.0005   -0.0004   -0.0068    0.0094
          42   -0.0009   -0.0054   -0.0009   -0.0016   -0.0022    0.0002    0.0006   -0.0169
          43   -0.0045    0.0362    0.0060    0.0177    0.0106   -0.0002    0.0244    0.0817
          44   -0.0004    0.0066    0.0008    0.0027    0.0032   -0.0001    0.0016    0.0091
          45    0.0000    0.0035   -0.0011   -0.0023    0.0068    0.0000    0.0037    0.0107
          46    0.0016   -0.0129   -0.0016   -0.0024    0.0018   -0.0024    0.0195    0.0749
          47    0.0031    0.0083    0.0032   -0.0018   -0.0011    0.0015   -0.0038   -0.0761
          48    0.0076    0.0004    0.0040   -0.0053    0.0004   -0.0008    0.0144    0.0483
          49   -0.0019    0.0014    0.0017    0.0005    0.0008   -0.0005   -0.0465    0.0438
          50    0.0052    0.0027    0.0070   -0.0000   -0.0123    0.0035   -0.0072   -0.0164
          51    0.0082    0.0002    0.0143    0.0150   -0.0369    0.0013    0.0067    0.0013
          52    0.0004   -0.0018   -0.0003   -0.0012   -0.0002    0.0001   -0.0014   -0.0076
          53   -0.0001    0.0032    0.0011    0.0049   -0.0021   -0.0000   -0.0011    0.0098
          54   -0.0000   -0.0021   -0.0002   -0.0023   -0.0001    0.0000    0.0005   -0.0073
          55   -0.0077    0.0362    0.0033    0.0171   -0.0001    0.0055   -0.0901   -0.0470
          56   -0.0198    0.0028   -0.0047   -0.0012    0.0001   -0.0017   -0.0333    0.0401
          57   -0.0122   -0.0022   -0.0111    0.0208    0.0059   -0.0036   -0.0059   -0.0217
          58    0.0027   -0.0122   -0.0014   -0.0061   -0.0009   -0.0007    0.0225    0.0014
          59    0.0004   -0.0074   -0.0011   -0.0029   -0.0000   -0.0006    0.0172    0.0137
          60   -0.0012   -0.0001   -0.0008    0.0011   -0.0002    0.0001   -0.0047   -0.0057
          61   -0.0456    0.1454    0.0226    0.0241    0.0255   -0.0148    0.3154   -0.1685
          62   -0.0068    0.0669    0.0239   -0.0133    0.0089   -0.0050    0.1714   -0.0414
          63    0.1356    0.0228    0.0703   -0.0573   -0.0176    0.0284   -0.0159   -0.0258
          64    0.0003   -0.0110   -0.0061   -0.0035   -0.0028   -0.0011    0.0402   -0.0377
          65    0.0070   -0.0232   -0.0182    0.0009    0.0076   -0.0023    0.0109    0.0102
          66   -0.0245    0.0089   -0.0189   -0.0148    0.0226    0.0011   -0.0143    0.0047
          67    0.0932    0.0167    0.1274    0.0628   -0.1274    0.0115    0.0067    0.0114
          68   -0.0123    0.0348    0.0398   -0.0008   -0.0187    0.0078    0.0027   -0.0151
          69    0.0070   -0.0157   -0.0186    0.0020    0.0054   -0.0019   -0.0088    0.0162
          70    0.0488   -0.1154   -0.0691    0.0155    0.0145   -0.0130    0.0783    0.0006
          71   -0.0047    0.0244    0.0219   -0.0002   -0.0106    0.0026   -0.0105   -0.0032
          72    0.0239    0.0344    0.0585    0.0228   -0.0408   -0.0001   -0.0205   -0.0113
          73   -0.0868    0.0502   -0.0319   -0.0492    0.0410    0.0020    0.0260   -0.0714
          74   -0.0154    0.0356    0.0275   -0.0017   -0.0097    0.0002    0.0147   -0.0402
          75    0.0648   -0.0232    0.0434    0.0400   -0.0441   -0.0012   -0.0067    0.0235


   Root No.      41        42        43        44        45        46        47        48

                41 A      42 A      43 A      44 A      45 A      46 A      47 A      48 A   

                1264.2    1270.6    1272.2    1275.2    1276.9    1296.7    1302.1    1326.1
  
           1   -0.0104    0.0072   -0.0077    0.0196   -0.0013    0.0041    0.0243   -0.0083
           2   -0.0064    0.0041   -0.0061    0.0236   -0.0038    0.0026    0.0060   -0.0412
           3    0.0007   -0.0011    0.0024   -0.0054   -0.0014   -0.0078   -0.0061    0.0079
           4   -0.0116    0.0065   -0.0067    0.0175   -0.0016    0.0031    0.0204    0.0013
           5   -0.0986    0.0500   -0.0569    0.1180   -0.0512    0.0427   -0.1511    0.3169
           6    0.0263   -0.0219    0.0181   -0.0390    0.0199    0.0138    0.0227   -0.0602
           7   -0.0048    0.0024   -0.0024    0.0085   -0.0043    0.0014   -0.0107    0.0199
           8    0.0007    0.0029   -0.0018    0.0071   -0.0017   -0.0065    0.0042   -0.0256
           9    0.0018   -0.0019    0.0018   -0.0071    0.0022    0.0023   -0.0011    0.0065
          10   -0.0049   -0.0010    0.0000    0.0014   -0.0021    0.0029   -0.0181    0.0132
          11   -0.0281    0.0523   -0.0476    0.1371   -0.0218    0.0132    0.1965    0.0300
          12    0.0075   -0.0149    0.0128   -0.0348    0.0082   -0.0012   -0.0362   -0.0204
          13   -0.0010    0.0010   -0.0030    0.0092    0.0019    0.0075    0.0086   -0.0041
          14    0.0011   -0.0046    0.0036   -0.0126    0.0003    0.0016   -0.0228    0.0019
          15    0.0007   -0.0001    0.0003   -0.0012    0.0004   -0.0011    0.0066    0.0022
          16    0.0275   -0.0251    0.0285   -0.0938    0.0566    0.0389    0.1383    0.1939
          17    0.0204   -0.0212    0.0241   -0.0794    0.0374    0.0220    0.0706    0.1347
          18   -0.0199    0.0186   -0.0216    0.0697   -0.0375   -0.0258   -0.0838   -0.1280
          19    0.0010   -0.0015    0.0024   -0.0071   -0.0010   -0.0113   -0.0211   -0.0181
          20    0.0022   -0.0004    0.0012   -0.0046    0.0030   -0.0032    0.0124    0.0058
          21   -0.0014    0.0031   -0.0009    0.0054   -0.0024   -0.0040    0.0032    0.0012
          22   -0.0038   -0.0037    0.0072   -0.0189   -0.0247   -0.0124   -0.0911   -0.0198
          23   -0.0009   -0.0074    0.0036   -0.0197   -0.0152    0.0038   -0.0487    0.0090
          24    0.0022   -0.0016   -0.0101    0.0134    0.0171    0.0098    0.0644    0.0135
          25   -0.0019   -0.0062    0.0036   -0.0262   -0.0215   -0.0057   -0.0548    0.0141
          26    0.0034   -0.0026    0.0018   -0.0005    0.0113    0.0133    0.0144   -0.0062
          27   -0.0014   -0.0027    0.0002    0.0010   -0.0020    0.0267   -0.0078    0.0047
          28   -0.0129   -0.0131    0.0128   -0.0210    0.0056   -0.0063   -0.0011   -0.0083
          29    0.0215   -0.0055    0.0067   -0.0196    0.0033   -0.0047   -0.0068    0.0222
          30    0.0068   -0.0151    0.0082    0.0170   -0.0018   -0.0007    0.0025   -0.0014
          31   -0.0698    0.0875   -0.0548   -0.0644    0.0105    0.0270    0.0193   -0.0173
          32   -0.0669    0.0010    0.0016   -0.0190    0.0056    0.0060    0.0132    0.0098
          33    0.1092    0.1626   -0.1092   -0.0696    0.0016    0.0352   -0.0155   -0.0149
          34    0.2862    0.0364   -0.0334    0.0382   -0.0170    0.0063   -0.0139    0.0280
          35   -0.0768   -0.1120    0.0774    0.0335   -0.0020   -0.0264    0.0032   -0.0095
          36    0.0343   -0.0086    0.0033    0.0181   -0.0040   -0.0006   -0.0014    0.0050
          37    0.1138   -0.0484    0.0298    0.0344   -0.0052   -0.0122   -0.0020    0.0079
          38    0.0250    0.0839   -0.0478   -0.1031    0.0167    0.0250   -0.0070   -0.0634
          39   -0.2673    0.0600   -0.0314   -0.0727    0.0158    0.0120    0.0140   -0.0243
          40   -0.0010   -0.0015   -0.0014   -0.0012   -0.0004    0.0074   -0.0011   -0.0008
          41    0.0012   -0.0004    0.0005    0.0007    0.0008   -0.0055   -0.0000    0.0008
          42   -0.0008   -0.0001   -0.0005   -0.0006   -0.0005    0.0044   -0.0003   -0.0002
          43    0.0005    0.0065    0.0025    0.0011   -0.0007   -0.0344    0.0029    0.0042
          44    0.0001   -0.0003   -0.0002    0.0003    0.0005    0.0011   -0.0001   -0.0004
          45    0.0002    0.0014    0.0006    0.0000   -0.0001   -0.0082    0.0008    0.0004
          46    0.0025    0.0009    0.0015    0.0023    0.0018   -0.0120    0.0015    0.0020
          47   -0.0023   -0.0007   -0.0014   -0.0026   -0.0026    0.0114   -0.0015   -0.0024
          48    0.0019    0.0009    0.0008    0.0016    0.0011   -0.0087    0.0017    0.0004
          49    0.0035   -0.0130   -0.0001    0.0016    0.0037    0.0708   -0.0045   -0.0109
          50   -0.0008    0.0091    0.0032   -0.0006   -0.0050   -0.0563    0.0041    0.0062
          51   -0.0008   -0.0034   -0.0018    0.0016   -0.0001    0.0288    0.0003    0.0004
          52   -0.0001   -0.0002   -0.0002   -0.0002    0.0000    0.0010   -0.0001   -0.0002
          53    0.0002   -0.0012    0.0002    0.0001   -0.0001    0.0099   -0.0002   -0.0009
          54   -0.0002    0.0007   -0.0001   -0.0000   -0.0002   -0.0055    0.0001    0.0006
          55    0.0002   -0.0008    0.0034   -0.0024    0.0004   -0.0095   -0.0037    0.0013
          56    0.0018   -0.0064   -0.0009    0.0011    0.0052    0.0258   -0.0036   -0.0002
          57   -0.0008    0.0007    0.0003   -0.0010   -0.0015   -0.0055   -0.0026    0.0039
          58   -0.0011    0.0014   -0.0012    0.0003   -0.0003    0.0005    0.0012   -0.0002
          59   -0.0006    0.0009   -0.0006    0.0006    0.0002   -0.0010    0.0011    0.0003
          60    0.0004   -0.0002    0.0000   -0.0001   -0.0001    0.0009   -0.0003    0.0000
          61   -0.0105   -0.0136   -0.0300   -0.0020   -0.0077    0.1632   -0.0017   -0.0220
          62   -0.0038   -0.0110   -0.0164    0.0002   -0.0005    0.0998    0.0014   -0.0146
          63    0.0003    0.0096    0.0085   -0.0013   -0.0028   -0.0552    0.0164   -0.0067
          64   -0.0025    0.0103    0.0035   -0.0017   -0.0099   -0.0375    0.0046    0.0072
          65   -0.0001   -0.0135   -0.0167   -0.0039   -0.0105    0.0077    0.0014   -0.0009
          66    0.0010    0.0026    0.0080   -0.0040   -0.0233    0.0033    0.0015   -0.0021
          67   -0.0014   -0.0441   -0.0524   -0.0260   -0.1248    0.0011    0.0196    0.0028
          68    0.0021    0.1098    0.1632    0.0082   -0.0740    0.0375    0.0051   -0.0002
          69   -0.0008   -0.0666   -0.0938   -0.0108    0.0094   -0.0150    0.0001   -0.0013
          70    0.0001    0.0297    0.0374    0.0306    0.1239    0.0684   -0.0208   -0.0098
          71   -0.0010   -0.0237   -0.0377   -0.0069   -0.0059   -0.0353    0.0031    0.0042
          72   -0.0023   -0.0574   -0.1074    0.0298    0.2445   -0.0529   -0.0317    0.0000
          73   -0.0029   -0.0082   -0.0383    0.0055    0.0695   -0.0975   -0.0059    0.0045
          74   -0.0003    0.0746    0.0803    0.0504    0.2197   -0.0121   -0.0334   -0.0024
          75    0.0020    0.0687    0.1047    0.0263    0.0606    0.0776   -0.0140   -0.0039


   Root No.      49        50        51        52        53        54        55        56

                49 A      50 A      51 A      52 A      53 A      54 A      55 A      56 A   

                1368.6    1385.2    1385.7    1436.5    1516.0    1662.7    1667.4    1881.3
  
           1    0.0144   -0.0049   -0.0040    0.0198    0.0051    0.0193    0.0448    0.0004
           2   -0.0189    0.0015    0.0032   -0.0509   -0.0277   -0.0458   -0.1154    0.0042
           3   -0.0027    0.0013   -0.0022    0.0046    0.0214    0.0020    0.0138   -0.0032
           4    0.0131   -0.0064   -0.0063    0.0198    0.0065    0.0173    0.0424    0.0022
           5   -0.0520    0.0244    0.0189    0.0171    0.0213   -0.0001    0.0303   -0.0003
           6    0.0170   -0.0074    0.0019   -0.0114   -0.0627    0.0027   -0.0409    0.0083
           7   -0.0160    0.0054    0.0036   -0.0391    0.0087   -0.0465   -0.0431    0.0008
           8   -0.0203   -0.0002   -0.0053   -0.0295    0.0564    0.0093    0.1332   -0.0046
           9    0.0120   -0.0018    0.0005    0.0258   -0.0195    0.0166   -0.0178    0.0003
          10   -0.0262    0.0058    0.0037   -0.0438    0.0005   -0.0164   -0.0267    0.0008
          11    0.1830   -0.0261   -0.0168    0.1140    0.0071   -0.0912   -0.0583    0.0055
          12   -0.0342    0.0035    0.0030   -0.0180   -0.0154    0.0293    0.0091    0.0036
          13   -0.0196    0.0006    0.0025   -0.0157   -0.0487    0.1294    0.0134    0.0007
          14    0.0170   -0.0028    0.0010    0.0567   -0.0423    0.0440   -0.0321    0.0017
          15   -0.0008    0.0010   -0.0013   -0.0106    0.0320   -0.0663    0.0050   -0.0008
          16   -0.0182    0.0144    0.0114   -0.0915    0.0044   -0.0333   -0.0512    0.0038
          17    0.0167    0.0066    0.0072   -0.0097   -0.0000   -0.0524   -0.0522    0.0014
          18    0.0061   -0.0086   -0.0056    0.0310   -0.0224    0.0481    0.0339   -0.0046
          19   -0.0080   -0.0005   -0.0035    0.0613    0.0267   -0.1003   -0.0166    0.0005
          20   -0.0051    0.0009   -0.0011   -0.0051    0.0215   -0.0134    0.0044    0.0021
          21    0.0034   -0.0001   -0.0004   -0.0166    0.0060    0.0381    0.0077    0.0025
          22    0.1560   -0.0131    0.0026   -0.0521    0.0066   -0.0163   -0.0117   -0.0034
          23    0.1346   -0.0081    0.0068   -0.0964   -0.0551    0.0619    0.0002   -0.0042
          24   -0.1323    0.0136    0.0004    0.0586   -0.0707   -0.0008   -0.0079   -0.0049
          25    0.1980   -0.0138    0.0062   -0.1654    0.0455   -0.0192    0.0166   -0.0111
          26   -0.0822    0.0068   -0.0030    0.0987   -0.0368   -0.0313   -0.0159   -0.0067
          27    0.0082    0.0016    0.0015   -0.0101   -0.0538    0.0283    0.0098   -0.0047
          28   -0.0018   -0.0106   -0.0133   -0.0028   -0.0009   -0.0000   -0.0014   -0.0001
          29    0.0047   -0.0236   -0.0291    0.0147    0.0012    0.0092    0.0141   -0.0011
          30    0.0012    0.0063    0.0089   -0.0016   -0.0030   -0.0020   -0.0013   -0.0004
          31    0.0329    0.0936    0.1138    0.0450    0.0229    0.0207    0.0514    0.0038
          32    0.0310    0.0672    0.0825    0.0442    0.0135    0.0171    0.0350    0.0011
          33   -0.0212   -0.0454   -0.0569   -0.0267   -0.0113   -0.0105   -0.0346    0.0082
          34    0.0107    0.0379    0.0455    0.0164    0.0134    0.0045    0.0146    0.0015
          35    0.0158    0.1010    0.1198    0.0206    0.0243    0.0067    0.0200   -0.0033
          36    0.0028    0.0179    0.0221    0.0044    0.0058    0.0013    0.0118   -0.0024
          37    0.0046   -0.0007    0.0009    0.0015   -0.0046   -0.0011   -0.0006   -0.0174
          38    0.0100    0.1216    0.1481    0.0037    0.0059   -0.0004   -0.0005   -0.0059
          39   -0.0117   -0.0510   -0.0648   -0.0110   -0.0040   -0.0005   -0.0128    0.0095
          40    0.0003   -0.0003   -0.0004   -0.0000   -0.0023   -0.0030    0.0032    0.0001
          41    0.0002    0.0005    0.0003   -0.0008   -0.0017   -0.0004    0.0014    0.0052
          42   -0.0001   -0.0004   -0.0000   -0.0000   -0.0012   -0.0004    0.0001   -0.0028
          43   -0.0007    0.0017    0.0009   -0.0018   -0.0087   -0.0015    0.0008   -0.0125
          44   -0.0000    0.0002    0.0001   -0.0001   -0.0021   -0.0027    0.0031    0.2175
          45   -0.0006    0.0004   -0.0004    0.0012    0.0050    0.0016   -0.0025   -0.1266
          46    0.0002    0.0007    0.0007   -0.0010   -0.0001    0.0017    0.0016    0.1916
          47   -0.0004   -0.0000   -0.0018    0.0026    0.0121    0.0050   -0.0050    0.1237
          48    0.0000    0.0007    0.0009   -0.0007   -0.0006   -0.0019    0.0025   -0.0195
          49    0.0008   -0.0029   -0.0034    0.0099    0.0730    0.0513   -0.0503    0.0001
          50   -0.0017    0.0069   -0.0045    0.0025    0.0419    0.0647   -0.0606   -0.0187
          51    0.0009   -0.0032    0.0043   -0.0075   -0.0449   -0.0255    0.0294    0.0087
          52   -0.0000    0.0001   -0.0003    0.0003    0.0016    0.0010   -0.0010   -0.0026
          53   -0.0001   -0.0013    0.0005    0.0006    0.0024    0.0003   -0.0011   -0.1485
          54    0.0002    0.0008   -0.0002   -0.0007   -0.0020    0.0001    0.0006    0.0848
          55    0.0011   -0.0008    0.0009   -0.0020   -0.0256   -0.0320    0.0321   -0.0256
          56    0.0027   -0.0048    0.0048   -0.0058   -0.0513   -0.0540    0.0550   -0.0063
          57   -0.0013    0.0011   -0.0004    0.0002    0.0052    0.0220   -0.0278    0.0019
          58   -0.0003   -0.0001    0.0003   -0.0005   -0.0026    0.0001   -0.0019   -0.1163
          59   -0.0001   -0.0003    0.0004   -0.0008   -0.0042   -0.0013    0.0001   -0.0951
          60    0.0001    0.0001   -0.0000    0.0001    0.0005    0.0007   -0.0007    0.0212
          61   -0.0041   -0.0080   -0.0016    0.0052    0.0362    0.0251   -0.0327    0.0143
          62    0.0010   -0.0066    0.0013    0.0021   -0.0032   -0.0251    0.0280   -0.0115
          63    0.0042    0.0068   -0.0052    0.0155    0.0554    0.0140    0.0092   -0.0084
          64   -0.0056   -0.0277    0.0287   -0.0039   -0.0239   -0.0127    0.0130    0.0042
          65   -0.0009   -0.0028    0.0024    0.0003   -0.0042   -0.0063    0.0053    0.0014
          66   -0.0003    0.0101   -0.0106    0.0035    0.0122    0.0039   -0.0055   -0.0007
          67    0.0113    0.1291   -0.1149   -0.0111   -0.0604   -0.0113    0.0166   -0.0041
          68   -0.0006    0.0375   -0.0340   -0.0005   -0.0147   -0.0033    0.0037    0.0048
          69    0.0026    0.0053   -0.0057    0.0004    0.0007   -0.0048    0.0034   -0.0040
          70    0.0248    0.1242   -0.1149   -0.0093   -0.0631   -0.0389    0.0396   -0.0059
          71   -0.0068   -0.0553    0.0516    0.0022    0.0264    0.0188   -0.0195   -0.0024
          72    0.0181   -0.0379    0.0341   -0.0048    0.0330    0.0158   -0.0166   -0.0067
          73    0.0178    0.1066   -0.0959   -0.0057   -0.0237   -0.0054    0.0049   -0.0028
          74    0.0230    0.0433   -0.0402   -0.0058    0.0007    0.0021   -0.0020   -0.0038
          75   -0.0059   -0.0956    0.0864    0.0019    0.0246    0.0078   -0.0082    0.0075


   Root No.      57        58        59        60        61        62        63        64

                57 A      58 A      59 A      60 A      61 A      62 A      63 A      64 A   

                1946.2    2649.2    2654.5    2668.3    2669.2    2691.5    2713.9    2740.2
  
           1    0.0002    0.0033    0.0002   -0.0040   -0.0007   -0.0005   -0.0372   -0.0071
           2   -0.0057   -0.0004   -0.0000   -0.0003    0.0001   -0.0000    0.0022    0.0018
           3    0.0036   -0.0015   -0.0001   -0.0019    0.0000   -0.0000   -0.0002   -0.0000
           4   -0.0042   -0.0723   -0.0034    0.0754    0.0078    0.0053    0.5028    0.0799
           5   -0.0005    0.0032    0.0001   -0.0031   -0.0002   -0.0016   -0.0051   -0.0016
           6   -0.0080   -0.0017    0.0001    0.0002    0.0003    0.0007   -0.0004    0.0003
           7   -0.0013    0.0005    0.0000   -0.0005    0.0000   -0.0009    0.0096   -0.0115
           8    0.0053   -0.0003    0.0001    0.0004   -0.0001   -0.0012    0.0001   -0.0026
           9   -0.0014   -0.0002   -0.0000   -0.0000    0.0000    0.0006   -0.0035    0.0044
          10    0.0035   -0.0003   -0.0003    0.0001   -0.0007    0.0079   -0.1588    0.1647
          11   -0.0029    0.0001    0.0000   -0.0000   -0.0001   -0.0004   -0.0020   -0.0026
          12   -0.0005    0.0006    0.0001    0.0000    0.0002   -0.0023    0.0507   -0.0515
          13   -0.0043   -0.0002   -0.0000   -0.0000    0.0002    0.0055   -0.0003    0.0182
          14   -0.0016   -0.0001    0.0000    0.0002   -0.0002   -0.0055    0.0026   -0.0260
          15    0.0021    0.0001   -0.0000   -0.0001   -0.0001   -0.0004   -0.0010    0.0046
          16    0.0040    0.0008    0.0002    0.0009   -0.0040   -0.0817    0.0196   -0.2602
          17   -0.0020   -0.0007   -0.0001   -0.0014    0.0055    0.1097   -0.0253    0.3351
          18    0.0014    0.0002    0.0001    0.0002   -0.0009   -0.0166    0.0035   -0.0482
          19    0.0032    0.0001    0.0004   -0.0000   -0.0011   -0.0135    0.0004    0.0004
          20    0.0007   -0.0004    0.0007    0.0003    0.0033    0.0348    0.0007   -0.0109
          21   -0.0014    0.0000   -0.0003   -0.0001   -0.0022   -0.0226   -0.0001    0.0062
          22    0.0003   -0.0018   -0.0021    0.0015    0.0278    0.3045   -0.0047   -0.0307
          23   -0.0001    0.0011    0.0023   -0.0006   -0.0178   -0.1975    0.0052    0.0139
          24   -0.0034   -0.0004   -0.0001    0.0004    0.0113    0.1320   -0.0036   -0.0091
          25   -0.0037    0.0013   -0.0041   -0.0013   -0.0122   -0.1229   -0.0053    0.0506
          26   -0.0058    0.0026   -0.0093   -0.0029   -0.0246   -0.2439   -0.0119    0.1095
          27   -0.0017   -0.0015    0.0064    0.0018    0.0159    0.1580    0.0075   -0.0712
          28    0.0004   -0.0329   -0.0009    0.0233   -0.0010   -0.0004   -0.0089   -0.0013
          29    0.0021    0.0056    0.0004   -0.0208    0.0010    0.0001    0.0031    0.0008
          30   -0.0006   -0.0301   -0.0002   -0.0306    0.0016   -0.0002    0.0006   -0.0001
          31   -0.0044    0.0523    0.0038   -0.1913    0.0092    0.0006    0.0452    0.0085
          32   -0.0013   -0.1053   -0.0065    0.3112   -0.0151   -0.0009   -0.0761   -0.0144
          33   -0.0037   -0.0504   -0.0023    0.0885   -0.0042   -0.0003   -0.0246   -0.0045
          34   -0.0014   -0.0538   -0.0006   -0.0387    0.0019   -0.0001   -0.0046   -0.0013
          35    0.0009   -0.0199    0.0001   -0.0414    0.0020    0.0000    0.0023   -0.0002
          36   -0.0002    0.2523    0.0012    0.3516   -0.0174    0.0003    0.0075    0.0067
          37    0.0160    0.4212    0.0089   -0.0693    0.0011    0.0045    0.0399    0.0030
          38    0.0022    0.0644    0.0015   -0.0206    0.0007    0.0007    0.0111    0.0014
          39   -0.0042    0.1735    0.0039   -0.0504    0.0015    0.0020    0.0176    0.0011
          40   -0.0065   -0.0001   -0.0000    0.0000   -0.0000    0.0000   -0.0000   -0.0001
          41    0.0002   -0.0002   -0.0001   -0.0000   -0.0001    0.0001   -0.0000   -0.0002
          42   -0.0007    0.0001   -0.0000    0.0000    0.0000   -0.0000   -0.0000    0.0001
          43    0.0070    0.0002    0.0001   -0.0001   -0.0003   -0.0000   -0.0000    0.0001
          44    0.2050    0.0001    0.0002    0.0000    0.0005   -0.0002    0.0002    0.0005
          45   -0.1151   -0.0000    0.0000   -0.0000   -0.0003    0.0002   -0.0001   -0.0003
          46   -0.2026    0.0013    0.0002   -0.0003   -0.0001   -0.0000   -0.0002   -0.0002
          47   -0.1599    0.0009    0.0001   -0.0001    0.0001   -0.0001   -0.0002    0.0001
          48    0.0357   -0.0002    0.0000    0.0000   -0.0001    0.0000    0.0000   -0.0001
          49    0.0341    0.0001    0.0001    0.0000    0.0004   -0.0002    0.0002    0.0001
          50    0.0076    0.0002   -0.0021   -0.0001   -0.0021    0.0001   -0.0002   -0.0003
          51    0.0000    0.0001   -0.0021    0.0001    0.0021   -0.0007   -0.0000   -0.0001
          52   -0.0022   -0.0000   -0.0001    0.0000   -0.0001    0.0001    0.0000   -0.0000
          53   -0.1239   -0.0001   -0.0001   -0.0000   -0.0002    0.0001   -0.0001   -0.0003
          54    0.0708    0.0000   -0.0000    0.0000    0.0001   -0.0000    0.0001    0.0001
          55    0.0218   -0.0004   -0.0001   -0.0002    0.0003    0.0001    0.0015    0.0014
          56   -0.0174   -0.0002    0.0004    0.0005    0.0007   -0.0005   -0.0031   -0.0021
          57    0.0115    0.0001   -0.0002   -0.0002   -0.0002    0.0002    0.0000    0.0006
          58    0.1197   -0.0006   -0.0001    0.0001   -0.0000    0.0000    0.0001    0.0000
          59    0.0986   -0.0005   -0.0001    0.0001   -0.0000    0.0000    0.0000   -0.0000
          60   -0.0221    0.0003    0.0000   -0.0000    0.0000   -0.0000   -0.0000    0.0000
          61   -0.0008   -0.0004    0.0021    0.0035    0.0022   -0.0027   -0.0189   -0.0148
          62   -0.0174    0.0007   -0.0037   -0.0066   -0.0041    0.0056    0.0376    0.0287
          63    0.0145    0.0003    0.0010    0.0014    0.0005   -0.0011   -0.0093   -0.0062
          64   -0.0053    0.0003   -0.0090    0.0005    0.0117   -0.0011   -0.0000    0.0004
          65   -0.0005    0.0004   -0.0355   -0.0017   -0.0289    0.0030    0.0006   -0.0005
          66    0.0018    0.0008   -0.0311    0.0011    0.0296   -0.0026   -0.0007    0.0001
          67   -0.0048    0.0015   -0.0705    0.0004    0.0232   -0.0015   -0.0009   -0.0006
          68    0.0033   -0.0042    0.2055   -0.0012   -0.0731    0.0046    0.0033    0.0027
          69   -0.0010   -0.0079    0.4123   -0.0003   -0.0975    0.0053    0.0056    0.0052
          70   -0.0122   -0.0011    0.1067    0.0062    0.1058   -0.0102   -0.0029    0.0002
          71    0.0016   -0.0035    0.3040    0.0162    0.2771   -0.0279   -0.0089   -0.0002
          72   -0.0019    0.0011   -0.0703   -0.0024   -0.0343    0.0040    0.0012   -0.0003
          73   -0.0056   -0.0038    0.0696   -0.0122   -0.2735    0.0251    0.0032   -0.0051
          74   -0.0035    0.0026   -0.0634    0.0069    0.1584   -0.0142   -0.0018    0.0031
          75    0.0076   -0.0032    0.0517   -0.0110   -0.2417    0.0230    0.0028   -0.0051


   Root No.      65        66        67        68        69

                65 A      66 A      67 A      68 A      69 A   

                2755.0    2757.3    2770.0    2774.5    2776.2
  
           1   -0.0056   -0.0058    0.0037   -0.0036    0.0020
           2    0.0016    0.0009    0.0005   -0.0026    0.0027
           3   -0.0001    0.0003   -0.0010    0.0010   -0.0007
           4    0.0607    0.0664   -0.0428    0.0358   -0.0130
           5   -0.0023   -0.0031    0.0007    0.0002   -0.0007
           6    0.0003    0.0002   -0.0009   -0.0001    0.0009
           7   -0.0184   -0.0168    0.0025   -0.0027    0.0026
           8   -0.0000    0.0017   -0.0004    0.0009   -0.0005
           9    0.0057    0.0047   -0.0006    0.0005   -0.0007
          10    0.2405    0.2212   -0.0305    0.0315   -0.0314
          11   -0.0027   -0.0020    0.0007   -0.0007    0.0007
          12   -0.0758   -0.0698    0.0093   -0.0097    0.0100
          13   -0.0029   -0.0098    0.0000   -0.0008    0.0007
          14    0.0034    0.0076    0.0008    0.0000   -0.0010
          15   -0.0003   -0.0000   -0.0003    0.0002    0.0001
          16    0.0336    0.0922    0.0058    0.0033   -0.0098
          17   -0.0453   -0.1180   -0.0074   -0.0042    0.0129
          18    0.0070    0.0166    0.0008    0.0008   -0.0017
          19    0.0164   -0.0161   -0.0011   -0.0005   -0.0014
          20    0.0066   -0.0020   -0.0001   -0.0003   -0.0009
          21   -0.0047    0.0020    0.0007   -0.0001    0.0003
          22   -0.1308    0.1471    0.0059    0.0060    0.0119
          23    0.0974   -0.1056   -0.0049   -0.0040   -0.0086
          24   -0.0655    0.0703    0.0030    0.0035    0.0065
          25   -0.0750    0.0581    0.0035    0.0030    0.0073
          26   -0.1811    0.1441    0.0091    0.0074    0.0177
          27    0.1156   -0.0922   -0.0061   -0.0044   -0.0110
          28   -0.0006   -0.0008    0.0018   -0.0033    0.0029
          29    0.0028    0.0020    0.0018   -0.0089    0.0098
          30   -0.0005   -0.0003   -0.0011    0.0028   -0.0028
[...]

 VIBRATION         33   33A           ATOM PAIR      ENERGY CONTRIBUTION    RADIAL
 FREQUENCY          1037.77         C  7 -- H  9         +20.4% ( 57.6%)      6.3%
 TRANSITION DIPOLE   0.8127         C 19 -- H 21         +12.3% ( 44.7%)      2.9%
 TRAVEL (Ang.)       0.5049         C 22 -- H 25         +11.6% ( 43.5%)      9.2%
 REDUCED MASS        0.2549         C  7 -- H  8          +9.3% ( 38.9%)      5.0%
 EFFECTIVE MASS      3.4419
 FORCE CONSTANT      0.1617

 VIBRATION         34   34A           ATOM PAIR      ENERGY CONTRIBUTION    RADIAL
 FREQUENCY          1051.97         C 19 -- H 21         +12.7% ( 50.7%)     27.6%
 TRANSITION DIPOLE   1.0903         O 14 -- C 15         +11.5% ( 48.2%)     79.1%
 TRAVEL (Ang.)       0.3244         C 16 -- C 19          +8.2% ( 40.6%)     91.8%
 REDUCED MASS        0.6090         C 22 -- H 24          +8.1% ( 40.4%)     33.6%
 EFFECTIVE MASS      7.2637
 FORCE CONSTANT      0.3971

 VIBRATION         35   35A           ATOM PAIR      ENERGY CONTRIBUTION    RADIAL
 FREQUENCY          1057.40         C  7 -- H  8         +17.8% ( 54.5%)      6.8%
 TRANSITION DIPOLE   0.8211         C  7 -- H  9         +15.1% ( 50.3%)     17.9%
 TRAVEL (Ang.)       0.4554         C 22 -- H 23         +13.6% ( 47.6%)     15.2%
 REDUCED MASS        0.3075         C 22 -- H 24          +8.7% ( 38.2%)      8.9%
 EFFECTIVE MASS      4.1248
 FORCE CONSTANT      0.2026

 VIBRATION         36   36A           ATOM PAIR      ENERGY CONTRIBUTION    RADIAL
 FREQUENCY          1085.10         C 10 -- H 12         +17.1% ( 51.2%)     22.0%
 TRANSITION DIPOLE   0.3717         C  1 -- H  2         +13.7% ( 45.8%)      0.1%
 TRAVEL (Ang.)       0.3595         C 10 -- H 13          +8.6% ( 36.4%)      5.1%
 REDUCED MASS        0.4808         C  1 -- C 10          +8.5% ( 36.0%)      5.5%
 EFFECTIVE MASS      5.1988
 FORCE CONSTANT      0.3336

 VIBRATION         37   37A           ATOM PAIR      ENERGY CONTRIBUTION    RADIAL
 FREQUENCY          1136.34         C  7 -- H  8         +25.7% ( 52.8%)      0.3%
 TRANSITION DIPOLE   0.5318         C  7 -- H  9         +17.4% ( 43.5%)      0.1%
 TRAVEL (Ang.)       0.3830         C 22 -- H 23         +11.4% ( 35.2%)     24.4%
 REDUCED MASS        0.4046         C 17 -- C 22          +6.9% ( 27.4%)     11.6%
 EFFECTIVE MASS      3.5532
 FORCE CONSTANT      0.3078

 VIBRATION         38   38A           ATOM PAIR      ENERGY CONTRIBUTION    RADIAL
 FREQUENCY          1167.54         C  1 -- C 10         +20.7% ( 70.0%)     73.9%
 TRANSITION DIPOLE   0.4018         C  1 -- C  3         +14.6% ( 58.7%)      6.6%
 TRAVEL (Ang.)       0.2027         C  3 -- H  4         +10.6% ( 50.2%)     28.2%
 REDUCED MASS        1.4059         C  1 -- C 19          +8.5% ( 45.0%)      1.8%
 EFFECTIVE MASS      8.3215
 FORCE CONSTANT      1.1291

 VIBRATION         39   39A           ATOM PAIR      ENERGY CONTRIBUTION    RADIAL
 FREQUENCY          1215.36         C 19 -- H 21         +32.0% ( 85.4%)      0.2%
 TRANSITION DIPOLE   1.0129         C 16 -- C 19         +14.2% ( 57.0%)     91.5%
 TRAVEL (Ang.)       0.1856         C  1 -- C 19         +11.8% ( 51.9%)      0.1%
 REDUCED MASS        1.6108         C 17 -- C 19         +11.6% ( 51.5%)     47.9%
 EFFECTIVE MASS      7.2561
 FORCE CONSTANT      1.4019

 VIBRATION         40   40A           ATOM PAIR      ENERGY CONTRIBUTION    RADIAL
 FREQUENCY          1227.37         C 16 -- C 19         +15.7% ( 61.0%)     57.6%
 TRANSITION DIPOLE   2.5661         C 15 -- C 16         +15.5% ( 60.7%)     87.8%
 TRAVEL (Ang.)       0.1510         O 14 -- C 16         +15.1% ( 59.9%)     50.8%
 REDUCED MASS        2.4103         O 14 -- C 15         +10.7% ( 50.5%)     67.0%
 EFFECTIVE MASS     11.5948
 FORCE CONSTANT      2.1392

 VIBRATION         41   41A           ATOM PAIR      ENERGY CONTRIBUTION    RADIAL
 FREQUENCY          1264.24         C 10 -- H 13         +38.1% ( 53.7%)      0.4%
 TRANSITION DIPOLE   0.5447         C 10 -- H 12         +35.8% ( 52.1%)      0.4%
 TRAVEL (Ang.)       0.3924         C 10 -- H 11         +11.1% ( 29.0%)     20.9%
 REDUCED MASS        0.3464         C  1 -- H  2          +6.3% ( 21.9%)      8.4%
 EFFECTIVE MASS      1.4622
 FORCE CONSTANT      0.3262

 VIBRATION         42   42A           ATOM PAIR      ENERGY CONTRIBUTION    RADIAL
 FREQUENCY          1270.56         C 10 -- H 11         +24.9% ( 47.6%)      0.0%
 TRANSITION DIPOLE   0.4957         C 22 -- H 23         +13.8% ( 35.4%)      0.6%
 TRAVEL (Ang.)       0.5249         C 10 -- H 12         +10.5% ( 30.9%)      8.6%
 REDUCED MASS        0.1926         C 10 -- H 13         +10.2% ( 30.4%)     12.4%
 EFFECTIVE MASS      2.2122
 FORCE CONSTANT      0.1832

 VIBRATION         43   43A           ATOM PAIR      ENERGY CONTRIBUTION    RADIAL
 FREQUENCY          1272.19         C 22 -- H 23         +28.8% ( 48.7%)      0.0%
 TRANSITION DIPOLE   0.5741         C 22 -- H 25         +15.2% ( 35.4%)      6.5%
 TRAVEL (Ang.)       0.5154         C 10 -- H 11         +12.8% ( 32.5%)      0.0%
 REDUCED MASS        0.1995         C 22 -- H 24         +12.1% ( 31.5%)     11.3%
 EFFECTIVE MASS      1.7881
 FORCE CONSTANT      0.1903

 VIBRATION         44   44A           ATOM PAIR      ENERGY CONTRIBUTION    RADIAL
 FREQUENCY          1275.19         C  1 -- C 10         +14.7% ( 44.1%)     91.9%
 TRANSITION DIPOLE   0.4321         C  5 -- H  6         +12.8% ( 41.1%)      7.0%
 TRAVEL (Ang.)       0.3912         C  3 -- H  4         +12.0% ( 39.9%)      4.4%
 REDUCED MASS        0.3456         C  1 -- H  2         +11.8% ( 39.5%)     59.1%
 EFFECTIVE MASS      3.8602         C 10 -- H 13         +11.3% ( 38.6%)      5.3%
 FORCE CONSTANT      0.3311

 VIBRATION         45   45A           ATOM PAIR      ENERGY CONTRIBUTION    RADIAL
 FREQUENCY          1276.92         C 22 -- H 24         +41.0% ( 56.5%)      0.5%
 TRANSITION DIPOLE   0.5187         C 22 -- H 25         +31.0% ( 49.1%)      2.5%
 TRAVEL (Ang.)       0.3978         C 22 -- H 23         +12.0% ( 30.6%)     28.8%
 REDUCED MASS        0.3337         C  5 -- H  6          +4.2% ( 18.0%)      0.1%
 EFFECTIVE MASS      1.5611
 FORCE CONSTANT      0.3206

 VIBRATION         46   46A           ATOM PAIR      ENERGY CONTRIBUTION    RADIAL
 FREQUENCY          1296.67         C 17 -- C 22         +19.4% ( 64.8%)     48.9%
 TRANSITION DIPOLE   0.8212         C 15 -- C 17         +18.3% ( 62.9%)     95.7%
 TRAVEL (Ang.)       0.1406         C 17 -- C 19         +17.4% ( 61.3%)     14.3%
 REDUCED MASS        2.6292         C  7 -- C 17         +14.3% ( 55.7%)      0.1%
 EFFECTIVE MASS      8.2315
 FORCE CONSTANT      2.6045

 VIBRATION         47   47A           ATOM PAIR      ENERGY CONTRIBUTION    RADIAL
 FREQUENCY          1302.11         C  3 -- H  4         +21.8% ( 51.2%)      2.0%
 TRANSITION DIPOLE   0.0808         C  5 -- H  6         +19.9% ( 48.9%)      8.9%
 TRAVEL (Ang.)       0.4415         C  1 -- H  2         +15.2% ( 42.7%)     11.4%
 REDUCED MASS        0.2656         C  7 -- H  8          +8.5% ( 32.0%)     27.3%
 EFFECTIVE MASS      2.9710
 FORCE CONSTANT      0.2654

 VIBRATION         48   48A           ATOM PAIR      ENERGY CONTRIBUTION    RADIAL
 FREQUENCY          1326.12         C  1 -- H  2         +39.5% ( 73.0%)      0.4%
 TRANSITION DIPOLE   0.1309         C  5 -- H  6         +20.7% ( 52.8%)      0.1%
 TRAVEL (Ang.)       0.3369         C  1 -- C 10          +8.6% ( 34.1%)     79.2%
 REDUCED MASS        0.4479         C  1 -- C 19          +5.9% ( 28.1%)      0.3%
 EFFECTIVE MASS      2.8869
 FORCE CONSTANT      0.4641

 VIBRATION         49   49A           ATOM PAIR      ENERGY CONTRIBUTION    RADIAL
 FREQUENCY          1368.62         C  7 -- H  8         +24.8% ( 50.3%)      0.0%
 TRANSITION DIPOLE   0.4876         C  3 -- H  4         +22.5% ( 47.9%)      3.4%
 TRAVEL (Ang.)       0.4026         C  7 -- H  9         +18.5% ( 43.5%)      0.9%
 REDUCED MASS        0.3040         C  3 -- C  5          +8.8% ( 30.0%)     77.8%
 EFFECTIVE MASS      2.4417
 FORCE CONSTANT      0.3355

 VIBRATION         50   50A           ATOM PAIR      ENERGY CONTRIBUTION    RADIAL
 FREQUENCY          1385.25         C 22 -- H 25         +17.9% ( 43.4%)      1.2%
 TRANSITION DIPOLE   1.2103         C 22 -- H 24         +16.4% ( 41.6%)      1.9%
 TRAVEL (Ang.)       0.4427         C 22 -- H 23         +15.2% ( 40.0%)      1.5%
 REDUCED MASS        0.2484         C 10 -- H 13         +14.3% ( 38.8%)      1.2%
 EFFECTIVE MASS      2.3858         C 10 -- H 11         +12.7% ( 36.6%)      2.3%
 FORCE CONSTANT      0.2808         C 10 -- H 12         +10.6% ( 33.4%)      1.5%

 VIBRATION         51   51A           ATOM PAIR      ENERGY CONTRIBUTION    RADIAL
 FREQUENCY          1385.70         C 10 -- H 13         +18.5% ( 45.4%)      1.2%
 TRANSITION DIPOLE   0.7183         C 10 -- H 11         +16.5% ( 42.8%)      2.2%
 TRAVEL (Ang.)       0.4100         C 22 -- H 25         +13.5% ( 38.8%)      1.5%
 REDUCED MASS        0.2895         C 10 -- H 12         +13.1% ( 38.2%)      1.9%
 EFFECTIVE MASS      2.6376         C 22 -- H 24         +12.9% ( 37.9%)      2.0%
 FORCE CONSTANT      0.3275         C 22 -- H 23         +11.5% ( 35.7%)      1.9%

 VIBRATION         52   52A           ATOM PAIR      ENERGY CONTRIBUTION    RADIAL
 FREQUENCY          1436.46         C  5 -- C  7         +14.4% ( 54.3%)     52.4%
 TRANSITION DIPOLE   0.4422         C  3 -- C  5         +14.1% ( 53.6%)     97.8%
 TRAVEL (Ang.)       0.1899         C  7 -- H  9         +12.9% ( 51.4%)      1.7%
 REDUCED MASS        1.3020         C  1 -- C  3         +10.3% ( 45.9%)     54.4%
 EFFECTIVE MASS      8.3584
 FORCE CONSTANT      1.5828

 VIBRATION         53   53A           ATOM PAIR      ENERGY CONTRIBUTION    RADIAL
 FREQUENCY          1515.95         C 17 -- C 19         +17.2% ( 66.5%)     90.5%
 TRANSITION DIPOLE   1.4887         C 17 -- C 22         +11.5% ( 54.3%)     86.4%
 TRAVEL (Ang.)       0.1444         C  3 -- C  5         +11.4% ( 54.2%)     99.1%
 REDUCED MASS        2.1337         C  7 -- C 17         +10.2% ( 51.2%)      8.0%
 EFFECTIVE MASS     10.5841
 FORCE CONSTANT      2.8890

 VIBRATION         54   54A           ATOM PAIR      ENERGY CONTRIBUTION    RADIAL
 FREQUENCY          1662.71         C  5 -- C  7         +25.1% ( 75.2%)     96.0%
 TRANSITION DIPOLE   0.9224         C  3 -- C  5         +13.9% ( 56.0%)     42.3%
 TRAVEL (Ang.)       0.1146         C  5 -- H  6         +11.8% ( 51.6%)      2.8%
 REDUCED MASS        3.0876         C  7 -- C 17          +9.7% ( 46.9%)      1.0%
 EFFECTIVE MASS     11.5763
 FORCE CONSTANT      5.0292

 VIBRATION         55   55A           ATOM PAIR      ENERGY CONTRIBUTION    RADIAL
 FREQUENCY          1667.39         C  1 -- C  3         +26.5% ( 78.5%)     94.5%
 TRANSITION DIPOLE   2.0336         C  3 -- C  5         +11.5% ( 51.8%)     51.1%
 TRAVEL (Ang.)       0.1123         C  1 -- C 19         +10.4% ( 49.2%)      2.4%
 REDUCED MASS        3.2077         C  3 -- H  4         +10.1% ( 48.4%)      3.4%
 EFFECTIVE MASS     11.5087
 FORCE CONSTANT      5.2544

 VIBRATION         56   56A           ATOM PAIR      ENERGY CONTRIBUTION    RADIAL
 FREQUENCY          1881.33         C 15 -- O 18         +24.4% ( 74.9%)     99.8%
 TRANSITION DIPOLE   6.9464         C 16 -- O 20         +19.8% ( 67.5%)     99.4%
 TRAVEL (Ang.)       0.1018         C 15 -- C 16         +17.5% ( 63.6%)      1.6%
 REDUCED MASS        3.4562         C 15 -- C 17         +10.4% ( 49.0%)     51.4%
 EFFECTIVE MASS     13.4306         O 14 -- C 15         +10.2% ( 48.5%)     19.4%
 FORCE CONSTANT      7.2075

 VIBRATION         57   57A           ATOM PAIR      ENERGY CONTRIBUTION    RADIAL
 FREQUENCY          1946.22         C 16 -- O 20         +22.5% ( 72.1%)    100.0%
 TRANSITION DIPOLE   2.8778         C 15 -- C 16         +20.2% ( 68.3%)     99.6%
 TRAVEL (Ang.)       0.0992         C 15 -- O 18         +18.4% ( 65.2%)    100.0%
 REDUCED MASS        3.5178         C 16 -- C 19         +10.7% ( 49.8%)     60.8%
 EFFECTIVE MASS     13.2378         O 14 -- C 16         +10.4% ( 49.1%)     22.8%
 FORCE CONSTANT      7.8506

 VIBRATION         58   58A           ATOM PAIR      ENERGY CONTRIBUTION    RADIAL
 FREQUENCY          2649.16         C 10 -- H 13         +68.6% ( 85.4%)     99.6%
 TRANSITION DIPOLE   0.6406         C 10 -- H 12         +22.7% ( 49.2%)     91.6%
 TRAVEL (Ang.)       0.2171         C 10 -- H 11          +6.1% ( 25.6%)     65.5%
 REDUCED MASS        0.5400         C  1 -- H  2          +1.6% ( 13.1%)     99.5%
 EFFECTIVE MASS      1.4353
 FORCE CONSTANT      2.2330

 VIBRATION         59   59A           ATOM PAIR      ENERGY CONTRIBUTION    RADIAL
 FREQUENCY          2654.54         C 22 -- H 23         +62.9% ( 81.8%)     99.2%
 TRANSITION DIPOLE   0.6836         C 22 -- H 24         +32.1% ( 58.5%)     94.6%
 TRAVEL (Ang.)       0.2222         C 22 -- H 25          +4.0% ( 20.7%)     51.0%
 REDUCED MASS        0.5143         C 17 -- C 22          +0.9% (  9.6%)      0.1%
 EFFECTIVE MASS      1.4371
 FORCE CONSTANT      2.1354

 VIBRATION         60   60A           ATOM PAIR      ENERGY CONTRIBUTION    RADIAL
 FREQUENCY          2668.25         C 10 -- H 11         +49.9% ( 72.9%)     98.6%
 TRANSITION DIPOLE   0.6517         C 10 -- H 12         +43.8% ( 68.3%)     96.8%
 TRAVEL (Ang.)       0.2351         C 10 -- H 13          +3.2% ( 18.5%)     41.6%
 REDUCED MASS        0.4574         C  1 -- H  2          +1.9% ( 14.1%)     99.4%
 EFFECTIVE MASS      1.4381
 FORCE CONSTANT      1.9187

 VIBRATION         61   61A           ATOM PAIR      ENERGY CONTRIBUTION    RADIAL
 FREQUENCY          2669.20         C 22 -- H 25         +58.6% ( 79.0%)     99.2%
 TRANSITION DIPOLE   0.5948         C 22 -- H 24         +33.1% ( 59.3%)     94.9%
 TRAVEL (Ang.)       0.2310         C 22 -- H 23          +6.2% ( 25.7%)     63.8%
 REDUCED MASS        0.4734         C 17 -- C 22          +0.9% (  9.7%)      0.0%
 EFFECTIVE MASS      1.4506
 FORCE CONSTANT      1.9874

 VIBRATION         62   62A           ATOM PAIR      ENERGY CONTRIBUTION    RADIAL
 FREQUENCY          2691.54         C  7 -- H  8         +53.6% ( 75.8%)     99.0%
 TRANSITION DIPOLE   0.4528         C  7 -- H  9         +37.0% ( 62.9%)     97.7%
 TRAVEL (Ang.)       0.2356         C  5 -- H  6          +6.4% ( 26.3%)     99.9%
 REDUCED MASS        0.4514         C  5 -- C  7          +1.0% ( 10.5%)      2.4%
 EFFECTIVE MASS      1.4735
 FORCE CONSTANT      1.9266

 VIBRATION         63   63A           ATOM PAIR      ENERGY CONTRIBUTION    RADIAL
 FREQUENCY          2713.87         C  1 -- H  2         +83.3% ( 92.7%)    100.0%
 TRANSITION DIPOLE   0.5279         C  3 -- H  4          +9.2% ( 30.8%)     99.9%
 TRAVEL (Ang.)       0.1887         C 10 -- H 11          +2.8% ( 17.0%)     98.1%
 REDUCED MASS        0.6977         C  1 -- C  3          +1.1% ( 10.4%)     30.6%
 EFFECTIVE MASS      1.3732
 FORCE CONSTANT      3.0275

 VIBRATION         64   64A           ATOM PAIR      ENERGY CONTRIBUTION    RADIAL
 FREQUENCY          2740.15         C  5 -- H  6         +74.0% ( 86.9%)    100.0%
 TRANSITION DIPOLE   0.7610         C  3 -- H  4         +12.1% ( 35.1%)     99.8%
 TRAVEL (Ang.)       0.2109         C  7 -- H  9          +8.0% ( 28.6%)     99.7%
 REDUCED MASS        0.5533         C  1 -- H  2          +2.6% ( 16.3%)     99.4%
 EFFECTIVE MASS      1.3848
 FORCE CONSTANT      2.4477

 VIBRATION         65   65A           ATOM PAIR      ENERGY CONTRIBUTION    RADIAL
 FREQUENCY          2755.02         C  3 -- H  4         +40.4% ( 63.6%)    100.0%
 TRANSITION DIPOLE   0.6676         C  7 -- H  9         +31.6% ( 56.2%)     97.1%
 TRAVEL (Ang.)       0.2895         C  7 -- H  8         +18.4% ( 42.9%)     92.4%
 REDUCED MASS        0.2919         C  1 -- H  2          +2.4% ( 15.4%)     99.0%
 EFFECTIVE MASS      1.3468
 FORCE CONSTANT      1.3055

 VIBRATION         66   66A           ATOM PAIR      ENERGY CONTRIBUTION    RADIAL
 FREQUENCY          2757.30         C  3 -- H  4         +35.2% ( 59.2%)    100.0%
 TRANSITION DIPOLE   1.0671         C  7 -- H  8         +23.5% ( 48.4%)     96.0%
 TRAVEL (Ang.)       0.3214         C  7 -- H  9         +20.2% ( 44.9%)     94.6%
 REDUCED MASS        0.2368         C  5 -- H  6         +14.9% ( 38.5%)     99.6%
 EFFECTIVE MASS      1.3237
 FORCE CONSTANT      1.0607

 VIBRATION         67   67A           ATOM PAIR      ENERGY CONTRIBUTION    RADIAL
 FREQUENCY          2770.04         C 19 -- H 21         +75.2% ( 87.1%)    100.0%
 TRANSITION DIPOLE   0.7931         C 22 -- H 24          +6.9% ( 26.4%)     96.0%
 TRAVEL (Ang.)       0.2102         C 22 -- H 25          +6.5% ( 25.7%)     95.5%
 REDUCED MASS        0.5512         C 22 -- H 23          +5.5% ( 23.5%)     94.5%
 EFFECTIVE MASS      1.3531
 FORCE CONSTANT      2.4918

 VIBRATION         68   68A           ATOM PAIR      ENERGY CONTRIBUTION    RADIAL
 FREQUENCY          2774.53         C 22 -- H 25         +17.6% ( 40.5%)     95.9%
 TRANSITION DIPOLE   0.8530         C 10 -- H 11         +16.8% ( 39.5%)     96.3%
 TRAVEL (Ang.)       0.4139         C 22 -- H 24         +15.9% ( 38.4%)     95.3%
 REDUCED MASS        0.1419         C 10 -- H 12         +14.2% ( 36.4%)     95.2%
 EFFECTIVE MASS      1.1745         C 22 -- H 23         +14.1% ( 36.2%)     94.5%
 FORCE CONSTANT      0.6435         C 10 -- H 13         +11.6% ( 32.9%)     93.9%

 VIBRATION         69   69A           ATOM PAIR      ENERGY CONTRIBUTION    RADIAL
 FREQUENCY          2776.22         C 10 -- H 11         +21.2% ( 44.7%)     96.8%
 TRANSITION DIPOLE   0.6588         C 19 -- H 21         +17.3% ( 40.4%)    100.0%
 TRAVEL (Ang.)       0.4112         C 10 -- H 12         +16.1% ( 38.9%)     94.9%
 REDUCED MASS        0.1436         C 10 -- H 13         +12.6% ( 34.5%)     93.1%
 EFFECTIVE MASS      1.2013         C 22 -- H 25         +11.0% ( 32.1%)     95.8%
 FORCE CONSTANT      0.6522

           FORCE CONSTANT IN CARTESIAN COORDINATES (Millidynes/A)

    ATOM   CHEMICAL       X               Y               Z
   NUMBER   SYMBOL  FORCE CONSTANT  FORCE CONSTANT  FORCE CONSTANT

      1       C        8.294136       11.005964        2.000466
      2       H        4.128025        0.914758        0.551413
      3       C        8.614053       10.920857        3.751074
      4       H        3.893125        0.922236        0.761053
      5       C       10.153524        8.868283        4.457793
      6       H        2.088988        2.877327        0.556189
      7       C       10.593728        4.913152        3.332819
      8       H        2.783035        1.587803        1.085421
      9       H        1.179713        2.815466        1.440926
     10       C        6.510939        7.407514        6.109193
     11       H        1.569382        3.018229        0.819635
     12       H        0.609042        0.700443        3.979559
     13       H        3.438724        0.793740        1.124710
     14       O        6.232360        5.099664        1.894222
     15       C        5.843912       13.751918        6.226708
     16       C       13.485834        9.211488        3.431885
     17       C       10.508636        6.720647        4.298343
     18       O        0.978008       11.216612        3.901791
     19       C        8.024208       10.102958        2.302628
     20       O        8.790722        6.430352        0.863677
     21       H        1.486924        3.419789        0.617892
     22       C        7.507007        6.295265        6.269504
     23       H        0.789781        1.274815        3.247048
     24       H        1.092760        3.632379        0.677130
     25       H        2.285945        1.165579        1.954244

 **********************
 *                    *
 * JOB ENDED NORMALLY *
 *                    *
 **********************



 TOTAL JOB TIME:             1.62 SECONDS

 == MOPAC DONE ==
