 *******************************************************************************
 ** Site#: 36969        For non-commercial use only    Version 21.051W 64BITS **
 *******************************************************************************
 ** Cite this program as: MOPAC2016, Version: 21.051W, James J. P. Stewart,   **
 ** Stewart Computational Chemistry, web: HTTP://OpenMOPAC.net. Days left: 295**
 *******************************************************************************
 **                                                                           **
 **                                MOPAC2016                                  **
 **                                                                           **
 *******************************************************************************

                              PM7 CALCULATION RESULTS

 *******************************************************************************
 *  CALCULATION DONE:                                Sat May  1 14:35:19 2021  *
 *  PM7        - The PM7 Hamiltonian to be used
 *  FORCE      - FORCE CALCULATION SPECIFIED
 *  T=         - A TIME OF 172800.0 SECONDS REQUESTED
 *  DUMP=N     - RESTART FILE WRITTEN EVERY 7200.0 SECONDS REQUESTED
 *******************************************************************************
PM7 FORCE
 TS_2_FREQ

   ATOM   CHEMICAL          X               Y               Z
  NUMBER   SYMBOL      (ANGSTROMS)     (ANGSTROMS)     (ANGSTROMS)
 
     1       C         -0.82013343  *  -0.46468356  *   1.85318105  *
     2       H          0.27537810  *  -0.44022691  *   1.87060956  *
     3       C         -1.55523376  *   0.70158543  *   1.82901431  *
     4       H         -2.59872219  *   0.69295356  *   2.14623430  *
     5       C         -1.03697666  *   1.87489425  *   1.25932039  *
     6       H         -1.69116816  *   2.74801990  *   1.19128901  *
     7       C          0.20172104  *   1.89576637  *   0.64740170  *
     8       H          1.01819436  *   1.27083921  *   0.99624955  *
     9       H          0.54983260  *   2.77201208  *   0.11399664  *
    10       C         -1.43117623  *  -1.75459971  *   2.26869260  *
    11       H         -0.88585209  *  -2.62499518  *   1.86087235  *
    12       H         -1.40866150  *  -1.85975403  *   3.36586339  *
    13       H         -2.47897241  *  -1.85803536  *   1.95817379  *
    14       O          1.67166706  *  -0.79179634  *  -0.86540452  *
    15       C          1.24187428  *   0.46300062  *  -1.29368428  *
    16       C          0.57310707  *  -1.50789035  *  -0.33368153  *
    17       C         -0.22260698  *   0.59137823  *  -0.94141767  *
    18       O          1.99940603  *   1.20855945  *  -1.83271163  *
    19       C         -0.60510951  *  -0.62809711  *  -0.38097879  *
    20       O          0.75153804  *  -2.62549032  *   0.04296904  *
    21       H         -1.60305980  *  -1.02527521  *  -0.35180662  *
    22       C         -1.08384338  *   1.47464688  *  -1.76162908  *
    23       H         -0.56045145  *   2.38379201  *  -2.09902781  *
    24       H         -1.42732878  *   0.95654575  *  -2.67370251  *
    25       H         -1.98836585  *   1.79496714  *  -1.22455478  *
 


          CARTESIAN COORDINATES 

    NO.       ATOM           X           Y           Z

     1         C         -0.8201     -0.4647      1.8532
     2         H          0.2754     -0.4402      1.8706
     3         C         -1.5552      0.7016      1.8290
     4         H         -2.5987      0.6930      2.1462
     5         C         -1.0370      1.8749      1.2593
     6         H         -1.6912      2.7480      1.1913
     7         C          0.2017      1.8958      0.6474
     8         H          1.0182      1.2708      0.9962
     9         H          0.5498      2.7720      0.1140
    10         C         -1.4312     -1.7546      2.2687
    11         H         -0.8859     -2.6250      1.8609
    12         H         -1.4087     -1.8598      3.3659
    13         H         -2.4790     -1.8580      1.9582
    14         O          1.6717     -0.7918     -0.8654
    15         C          1.2419      0.4630     -1.2937
    16         C          0.5731     -1.5079     -0.3337
    17         C         -0.2226      0.5914     -0.9414
    18         O          1.9994      1.2086     -1.8327
    19         C         -0.6051     -0.6281     -0.3810
    20         O          0.7515     -2.6255      0.0430
    21         H         -1.6031     -1.0253     -0.3518
    22         C         -1.0838      1.4746     -1.7616
    23         H         -0.5605      2.3838     -2.0990
    24         H         -1.4273      0.9565     -2.6737
    25         H         -1.9884      1.7950     -1.2246

 General Reference for PM7:
 "Optimization of Parameters for Semiempirical Methods VI: More Modifications to the 
 NDDO Approximations and Re-optimization of Parameters", J. J. P. Stewart, J. Mol. Mod., 1:32, 19 (2013)
 https://link.springer.com/article/10.1007/s00894-012-1667-x

           Empirical Formula: C10 H12 O3  =    25 atoms



      MOLECULAR POINT GROUP   :   C1  


      RHF CALCULATION, NO. OF DOUBLY OCCUPIED LEVELS = 35



          HEAT OF FORMATION =     -60.818466 KCALS/MOLE


          CARTESIAN COORDINATE DERIVATIVES

   NUMBER  ATOM         X            Y            Z

     1       C     -0.158977     0.177001    -0.294839
     2       H      0.150873     0.023702     0.283691
     3       C     -0.002826     0.591797    -0.169180
     4       H     -0.382226    -0.256542     0.246002
     5       C     -0.219331    -0.409829     0.343778
     6       H     -0.203077     0.276098     0.567617
     7       C     -0.023180    -0.319009    -0.434367
     8       H     -0.460157    -0.463680    -0.069315
     9       H     -0.110128    -0.249750    -0.245486
    10       C      0.097837    -0.004857    -0.195424
    11       H     -0.036253    -0.166916     0.137481
    12       H     -0.009591     0.380661    -0.251862
    13       H      0.216531    -0.005257    -0.111304
    14       O      0.125945    -0.087920    -0.068073
    15       C     -0.600397    -0.694799     0.381335
    16       C      0.108984     0.458923    -0.038495
    17       C      0.132002     0.630984     0.091154
    18       O      0.661881     0.343263    -0.562963
    19       C      0.130336    -0.183896     0.784474
    20       O      0.169971    -0.379218    -0.057288
    21       H      0.218505     0.313528    -0.170859
    22       C      0.036463    -0.147176    -0.074641
    23       H     -0.122263    -0.183356    -0.370194
    24       H     -0.139641     0.332885     0.140411
    25       H      0.418713     0.023355     0.138344
 


          GRADIENT NORM =   2.64719


          TIME FOR SCF CALCULATION =    0.02

          TIME FOR DERIVATIVES     =    0.00

          MOLECULAR WEIGHT =  180.20



          ROTATIONAL CONSTANTS IN CM(-1)

          A =    0.03536466   B =    0.02774529   C =    0.01872399



           PRINCIPAL MOMENTS OF INERTIA IN UNITS OF 10**(-40)*GRAM-CM**2

          A =      791.5464   B =     1008.9198   C =     1495.0218


          ORIENTATION OF MOLECULE IN FORCE CALCULATION

    NO.       ATOM         X         Y         Z

     1          C      -0.8064   -0.4735    1.8472
     2          H       0.2896   -0.4735    1.8472
     3          C      -1.5155    0.7090    1.8472
     4          H      -2.5538    0.7200    2.1811
     5          C      -0.9804    1.8767    1.2816
     6          H      -1.6159    2.7648    1.2334
     7          C       0.2486    1.8768    0.6500
     8          H       1.0564    1.2301    0.9791
     9          H       0.6077    2.7509    0.1204
    10          C      -1.4393   -1.7540    2.2589
    11          H      -0.9201   -2.6318    1.8332
    12          H      -1.4017   -1.8716    3.3544
    13          H      -2.4940   -1.8308    1.9643
    14          O       1.6340   -0.8260   -0.9145
    15          C       1.2255    0.4426   -1.3226
    16          C       0.5283   -1.5234   -0.3727
    17          C      -0.2299    0.5995   -0.9454
    18          O       1.9908    1.1770   -1.8659
    19          C      -0.6306   -0.6173   -0.3917
    20          O       0.6877   -2.6487   -0.0108
    21          H      -1.6366   -0.9925   -0.3506
    22          C      -1.0842    1.5105   -1.7422
    23          H      -0.5461    2.4115   -2.0784
    24          H      -1.4536    1.0101   -2.6540
    25          H      -1.9727    1.8449   -1.1873


    FIRST DERIVATIVES WILL BE USED IN THE CALCULATION OF SECOND DERIVATIVES

          ESTIMATED TIME TO COMPLETE CALCULATION =        2.93 SECONDS

    FOR POINT-GROUP C1   THERE ARE   1 UNIQUE SYMMETRY FUNCTIONS.

 STEP:   1 TIME =     0.02 SECS, INTEGRAL =      0.02 TIME LEFT: 172799.96
 STEP:   2 TIME =     0.04 SECS, INTEGRAL =      0.06 TIME LEFT: 172799.92
 STEP:   3 TIME =     0.04 SECS, INTEGRAL =      0.10 TIME LEFT: 172799.88
 STEP:   4 TIME =     0.03 SECS, INTEGRAL =      0.12 TIME LEFT: 172799.86
 STEP:   5 TIME =     0.02 SECS, INTEGRAL =      0.14 TIME LEFT: 172799.84
 STEP:   6 TIME =     0.02 SECS, INTEGRAL =      0.17 TIME LEFT: 172799.81
 STEP:   7 TIME =     0.02 SECS, INTEGRAL =      0.19 TIME LEFT: 172799.79
 STEP:   8 TIME =     0.04 SECS, INTEGRAL =      0.23 TIME LEFT: 172799.75
 STEP:   9 TIME =     0.02 SECS, INTEGRAL =      0.25 TIME LEFT: 172799.73
 STEP:  10 TIME =     0.02 SECS, INTEGRAL =      0.27 TIME LEFT: 172799.71
 STEP:  11 TIME =     0.02 SECS, INTEGRAL =      0.30 TIME LEFT: 172799.68
 STEP:  12 TIME =     0.03 SECS, INTEGRAL =      0.33 TIME LEFT: 172799.65
 STEP:  13 TIME =     0.04 SECS, INTEGRAL =      0.37 TIME LEFT: 172799.61
 STEP:  14 TIME =     0.03 SECS, INTEGRAL =      0.39 TIME LEFT: 172799.59
 STEP:  15 TIME =     0.04 SECS, INTEGRAL =      0.43 TIME LEFT: 172799.55
 STEP:  16 TIME =     0.03 SECS, INTEGRAL =      0.46 TIME LEFT: 172799.52
 STEP:  17 TIME =     0.03 SECS, INTEGRAL =      0.48 TIME LEFT: 172799.50
 STEP:  18 TIME =     0.02 SECS, INTEGRAL =      0.51 TIME LEFT: 172799.47
 STEP:  19 TIME =     0.03 SECS, INTEGRAL =      0.54 TIME LEFT: 172799.44
 STEP:  20 TIME =     0.03 SECS, INTEGRAL =      0.57 TIME LEFT: 172799.41
 STEP:  21 TIME =     0.04 SECS, INTEGRAL =      0.61 TIME LEFT: 172799.38
 STEP:  22 TIME =     0.04 SECS, INTEGRAL =      0.64 TIME LEFT: 172799.34
 STEP:  23 TIME =     0.02 SECS, INTEGRAL =      0.66 TIME LEFT: 172799.32
 STEP:  24 TIME =     0.03 SECS, INTEGRAL =      0.69 TIME LEFT: 172799.29
 STEP:  25 TIME =     0.03 SECS, INTEGRAL =      0.72 TIME LEFT: 172799.26
 STEP:  26 TIME =     0.02 SECS, INTEGRAL =      0.74 TIME LEFT: 172799.24
 STEP:  27 TIME =     0.02 SECS, INTEGRAL =      0.76 TIME LEFT: 172799.22
 STEP:  28 TIME =     0.02 SECS, INTEGRAL =      0.79 TIME LEFT: 172799.20
 STEP:  29 TIME =     0.03 SECS, INTEGRAL =      0.81 TIME LEFT: 172799.17
 STEP:  30 TIME =     0.03 SECS, INTEGRAL =      0.84 TIME LEFT: 172799.14
 STEP:  31 TIME =     0.06 SECS, INTEGRAL =      0.90 TIME LEFT: 172799.08
 STEP:  32 TIME =     0.06 SECS, INTEGRAL =      0.96 TIME LEFT: 172799.02
 STEP:  33 TIME =     0.02 SECS, INTEGRAL =      0.98 TIME LEFT: 172799.00
 STEP:  34 TIME =     0.03 SECS, INTEGRAL =      1.01 TIME LEFT: 172798.97
 STEP:  35 TIME =     0.03 SECS, INTEGRAL =      1.04 TIME LEFT: 172798.94
 STEP:  36 TIME =     0.02 SECS, INTEGRAL =      1.06 TIME LEFT: 172798.92
 STEP:  37 TIME =     0.04 SECS, INTEGRAL =      1.10 TIME LEFT: 172798.88
 STEP:  38 TIME =     0.05 SECS, INTEGRAL =      1.14 TIME LEFT: 172798.84
 STEP:  39 TIME =     0.04 SECS, INTEGRAL =      1.18 TIME LEFT: 172798.80
 STEP:  40 TIME =     0.05 SECS, INTEGRAL =      1.23 TIME LEFT: 172798.75
 STEP:  41 TIME =     0.04 SECS, INTEGRAL =      1.27 TIME LEFT: 172798.71
 STEP:  42 TIME =     0.03 SECS, INTEGRAL =      1.30 TIME LEFT: 172798.68
 STEP:  43 TIME =     0.02 SECS, INTEGRAL =      1.32 TIME LEFT: 172798.66
 STEP:  44 TIME =     0.03 SECS, INTEGRAL =      1.35 TIME LEFT: 172798.63
 STEP:  45 TIME =     0.03 SECS, INTEGRAL =      1.38 TIME LEFT: 172798.60
 STEP:  46 TIME =     0.04 SECS, INTEGRAL =      1.42 TIME LEFT: 172798.56
 STEP:  47 TIME =     0.03 SECS, INTEGRAL =      1.45 TIME LEFT: 172798.53
 STEP:  48 TIME =     0.03 SECS, INTEGRAL =      1.48 TIME LEFT: 172798.50
 STEP:  49 TIME =     0.03 SECS, INTEGRAL =      1.50 TIME LEFT: 172798.48
 STEP:  50 TIME =     0.03 SECS, INTEGRAL =      1.54 TIME LEFT: 172798.45
 STEP:  51 TIME =     0.02 SECS, INTEGRAL =      1.56 TIME LEFT: 172798.42
 STEP:  52 TIME =     0.02 SECS, INTEGRAL =      1.58 TIME LEFT: 172798.40
 STEP:  53 TIME =     0.03 SECS, INTEGRAL =      1.61 TIME LEFT: 172798.37
 STEP:  54 TIME =     0.03 SECS, INTEGRAL =      1.64 TIME LEFT: 172798.34
 STEP:  55 TIME =     0.04 SECS, INTEGRAL =      1.68 TIME LEFT: 172798.30
 STEP:  56 TIME =     0.03 SECS, INTEGRAL =      1.70 TIME LEFT: 172798.28
 STEP:  57 TIME =     0.03 SECS, INTEGRAL =      1.73 TIME LEFT: 172798.25
 STEP:  58 TIME =     0.02 SECS, INTEGRAL =      1.75 TIME LEFT: 172798.23
 STEP:  59 TIME =     0.03 SECS, INTEGRAL =      1.78 TIME LEFT: 172798.20
 STEP:  60 TIME =     0.02 SECS, INTEGRAL =      1.80 TIME LEFT: 172798.18
 STEP:  61 TIME =     0.04 SECS, INTEGRAL =      1.84 TIME LEFT: 172798.14
 STEP:  62 TIME =     0.02 SECS, INTEGRAL =      1.86 TIME LEFT: 172798.12
 STEP:  63 TIME =     0.03 SECS, INTEGRAL =      1.89 TIME LEFT: 172798.09
 STEP:  64 TIME =     0.02 SECS, INTEGRAL =      1.90 TIME LEFT: 172798.08
 STEP:  65 TIME =     0.02 SECS, INTEGRAL =      1.92 TIME LEFT: 172798.06
 STEP:  66 TIME =     0.02 SECS, INTEGRAL =      1.93 TIME LEFT: 172798.05
 STEP:  67 TIME =     0.02 SECS, INTEGRAL =      1.95 TIME LEFT: 172798.03
 STEP:  68 TIME =     0.02 SECS, INTEGRAL =      1.97 TIME LEFT: 172798.01
 STEP:  69 TIME =     0.02 SECS, INTEGRAL =      1.99 TIME LEFT: 172797.99
 STEP:  70 TIME =     0.02 SECS, INTEGRAL =      2.00 TIME LEFT: 172797.98
 STEP:  71 TIME =     0.02 SECS, INTEGRAL =      2.02 TIME LEFT: 172797.96
 STEP:  72 TIME =     0.01 SECS, INTEGRAL =      2.03 TIME LEFT: 172797.95
 STEP:  73 TIME =     0.02 SECS, INTEGRAL =      2.05 TIME LEFT: 172797.93
 STEP:  74 TIME =     0.02 SECS, INTEGRAL =      2.06 TIME LEFT: 172797.92
 STEP:  75 TIME =     0.01 SECS, INTEGRAL =      2.07 TIME LEFT: 172797.91

(To convert to Hartree/Bohr^2, multiply by (10^(-21) x N x a0^2)/(4.184 x 627.51) =  0.0642)


           FORCE MATRIX IN MILLIDYNES/ANGSTROM


                  C  1       H  2       C  3       H  4       C  5       H  6
 ------------------------------------------------------------------------------
     C    1  14.412068
     H    2   3.357798   4.241229
     C    3   6.984394   0.764545  15.110510
     H    4   0.795753   0.085286   3.446623   4.381441
     C    5   2.134353   0.180594   5.529707   0.768297  15.111687
     H    6   0.096160   0.005128   0.755818   0.031796   3.441366   4.346990
     C    7   1.307660   0.148110   2.229940   0.103932   6.936627   0.766760
     H    8   0.147381   0.027449   0.185993   0.006640   0.795736   0.082976
     H    9   0.022187   0.005593   0.100302   0.007930   0.754952   0.044406
     C   10   3.925822   0.672465   0.879907   0.052458   0.131384   0.013575
     H   11   0.736965   0.020426   0.048974   0.004456   0.028113   0.002621
     H   12   0.738555   0.015687   0.027520   0.011207   0.017092   0.002115
     H   13   0.725039   0.042483   0.023622   0.017629   0.014491   0.001828
     O   14   0.110279   0.021367   0.080508   0.005884   0.057385   0.009536
     C   15   0.215277   0.033377   0.190553   0.020382   0.195953   0.013908
     C   16   0.405748   0.114579   0.241415   0.012244   0.251090   0.032419
     C   17   1.473432   0.159032   1.626027   0.048855   2.009754   0.060040
     O   18   0.031263   0.009613   0.035532   0.006391   0.043310   0.007816
     C   19   1.667852   0.369942   1.727703   0.054403   1.561545   0.048375
     O   20   0.093585   0.022096   0.091144   0.007133   0.084833   0.008955
     H   21   0.361748   0.010327   0.153403   0.006305   0.149640   0.005970
     C   22   0.131008   0.014943   0.151312   0.009850   0.160516   0.012894
     H   23   0.011769   0.001932   0.012042   0.001923   0.012853   0.004084
     H   24   0.017833   0.001761   0.016162   0.001862   0.018210   0.001837
     H   25   0.014073   0.002651   0.019157   0.004861   0.033497   0.012547


                  C  7       H  8       H  9       C 10       H 11       H 12
 ------------------------------------------------------------------------------
     C    7  13.106977
     H    8   3.448318   4.209944
     H    9   3.522274   0.443722   4.269912
     C   10   0.070117   0.011484   0.008898  11.645822
     H   11   0.028005   0.003809   0.002173   3.343454   4.136385
     H   12   0.008809   0.002167   0.000956   3.345078   0.453459   4.164031
     H   13   0.012938   0.001955   0.001591   3.419817   0.448511   0.456003
     O   14   0.083341   0.028087   0.021940   0.052063   0.032468   0.008295
     C   15   0.398633   0.132342   0.071372   0.049023   0.025158   0.009546
     C   16   0.371007   0.054096   0.029198   0.137732   0.102400   0.021009
     C   17   2.177915   0.445511   0.222919   0.054283   0.024911   0.007700
     O   18   0.052530   0.018914   0.029073   0.020604   0.008485   0.004250
     C   19   1.722699   0.166156   0.042819   0.187456   0.033930   0.015132
     O   20   0.109459   0.018246   0.008448   0.090124   0.052679   0.011445
     H   21   0.156093   0.013595   0.004059   0.024002   0.013619   0.002889
     C   22   0.425621   0.014789   0.014739   0.019675   0.005983   0.003081
     H   23   0.016865   0.003291   0.018476   0.004219   0.001231   0.000908
     H   24   0.030382   0.002002   0.001723   0.004551   0.001336   0.000675
     H   25   0.025426   0.003648   0.007431   0.006570   0.001684   0.001144


                  H 13       O 14       C 15       C 16       C 17       O 18
 ------------------------------------------------------------------------------
     H   13   4.218028
     O   14   0.009294   8.976588
     C   15   0.009097   3.633294  18.512628
     C   16   0.021133   3.168246   2.374881  18.816490
     C   17   0.012476   1.146134   2.685467   1.557269  14.511297
     O   18   0.004395   1.857946  12.786608   0.441057   0.997184  14.804936
     C   19   0.013575   1.262871   1.242037   3.541744   6.172179   0.121876
     O   20   0.009086   1.830387   0.414667  12.675438   0.147545   0.127475
     H   21   0.017621   0.057683   0.091335   0.612087   0.746943   0.014484
     C   22   0.005331   0.114252   0.511808   0.126719   4.029591   0.055384
     H   23   0.001159   0.027830   0.073398   0.028918   0.721562   0.030199
     H   24   0.001399   0.017988   0.039041   0.024002   0.736373   0.013906
     H   25   0.001844   0.018331   0.035320   0.027031   0.733012   0.007715


                  C 19       O 20       H 21       C 22       H 23       H 24
 ------------------------------------------------------------------------------
     C   19  13.517158
     O   20   1.147501  14.733663
     H   21   3.548017   0.035073   4.381290
     C   22   0.724573   0.034103   0.047296  11.650051
     H   23   0.047400   0.005742   0.003547   3.387001   4.185893
     H   24   0.033538   0.009186   0.011974   3.342211   0.451517   4.159395
     H   25   0.029653   0.006372   0.010927   3.392035   0.452026   0.454022


                  H 25
 ------------------
     H   25   4.203233


          HEAT OF FORMATION =     -60.818466 KCALS/MOLE

          ZERO POINT ENERGY     117.689 KCAL/MOL

         NOTE: SYSTEM IS NOT A GROUND STATE, THEREFORE ZERO POINT
         ENERGY IS NOT MEANINGFULL. ZERO POINT ENERGY PRINTED
         DOES NOT INCLUDE THE  1 IMAGINARY FREQUENCIES


           NORMAL COORDINATE ANALYSIS (Total motion = 1 Angstrom)


   Root No.       1         2         3         4         5         6         7         8

                 1 A       2 A       3 A       4 A       5 A       6 A       7 A       8 A   

                -692.8      59.2     115.4     137.0     141.8     146.5     167.5     178.2
  
           1    0.0140    0.0266   -0.0082    0.0226    0.0176    0.0024    0.0055   -0.0033
           2   -0.0188    0.0083    0.0210   -0.0036   -0.0061   -0.0088    0.0074   -0.0178
           3   -0.0803    0.0020    0.0020   -0.0288   -0.0165   -0.0078   -0.0176    0.0162
           4    0.0166    0.0266   -0.0085    0.0231    0.0176    0.0027    0.0062   -0.0035
           5    0.0091    0.0315    0.0069   -0.0067   -0.0057   -0.0176    0.0191   -0.0296
           6    0.0467   -0.0172    0.0009   -0.0193   -0.0136   -0.0121   -0.0062   -0.0022
           7   -0.0009    0.0011    0.0044    0.0309    0.0194    0.0126   -0.0038    0.0061
           8    0.0259   -0.0072    0.0290    0.0025   -0.0046   -0.0025    0.0025   -0.0127
           9   -0.0092    0.0028   -0.0064   -0.0060   -0.0034   -0.0012   -0.0222   -0.0031
          10    0.0178    0.0042    0.0047    0.0335    0.0210    0.0153   -0.0075    0.0072
          11   -0.0040   -0.0273    0.0425    0.0034   -0.0069    0.0054   -0.0043    0.0012
          12    0.0490    0.0132   -0.0060    0.0022    0.0018    0.0074   -0.0348   -0.0000
          13   -0.0233   -0.0288    0.0161    0.0305    0.0159    0.0156   -0.0003    0.0154
          14   -0.0162    0.0012    0.0191    0.0065   -0.0012   -0.0058    0.0063   -0.0268
          15    0.0100   -0.0087   -0.0156    0.0023    0.0005   -0.0041   -0.0117   -0.0208
          16    0.0256   -0.0495    0.0246    0.0333    0.0156    0.0202   -0.0011    0.0242
          17    0.0192   -0.0140    0.0246    0.0093   -0.0008   -0.0021    0.0049   -0.0212
          18    0.0299   -0.0128   -0.0271    0.0174    0.0105    0.0006   -0.0194   -0.0338
          19   -0.0124   -0.0304    0.0180    0.0220    0.0098    0.0112    0.0083    0.0183
          20   -0.0635    0.0247   -0.0001    0.0065    0.0014   -0.0116    0.0074   -0.0442
          21   -0.0844   -0.0116   -0.0104   -0.0111   -0.0096   -0.0133    0.0066   -0.0202
          22    0.0202   -0.0150    0.0104    0.0232    0.0123    0.0106    0.0027    0.0116
          23    0.0366    0.0457   -0.0041    0.0009   -0.0004   -0.0133    0.0017   -0.0460
          24    0.0488   -0.0082    0.0006   -0.0248   -0.0202   -0.0140    0.0082   -0.0027
          25   -0.0224   -0.0509    0.0283    0.0159    0.0046    0.0119    0.0170    0.0341
          26   -0.0255    0.0289   -0.0117    0.0033    0.0006   -0.0125    0.0059   -0.0432
          27   -0.0361   -0.0186   -0.0230   -0.0200   -0.0143   -0.0148    0.0107   -0.0096
          28    0.0025    0.0617   -0.0251    0.0122    0.0138   -0.0028    0.0202   -0.0084
          29    0.0033   -0.0018    0.0338   -0.0045   -0.0078   -0.0052    0.0007   -0.0029
          30   -0.0146    0.0230    0.0168   -0.0450   -0.0262   -0.0055   -0.0163    0.0527
          31   -0.0075    0.0665   -0.0375    0.0486    0.0941   -0.1178    0.0099    0.0118
          32   -0.0147    0.0054    0.0235   -0.0076   -0.0129   -0.0002    0.0069   -0.0179
          33    0.0047    0.0139    0.0239    0.0066    0.0832   -0.1580   -0.0423    0.1085
          34    0.0136    0.0921   -0.0255   -0.0614   -0.1206    0.1776    0.0548   -0.0459
          35    0.0343    0.0035    0.0454    0.0178    0.0527   -0.0966   -0.0143    0.0497
          36   -0.0123    0.0226    0.0180   -0.0404   -0.0154   -0.0212   -0.0191    0.0598
          37   -0.0006    0.0557   -0.0268    0.0325    0.0525   -0.0552    0.0118    0.0019
          38    0.0004   -0.0235    0.0456   -0.0213   -0.0581    0.0737    0.0014   -0.0234
          39   -0.0031    0.0500    0.0197   -0.1142   -0.1531    0.1642    0.0147    0.0203
          40   -0.0064   -0.0096    0.0040    0.0056   -0.0267   -0.0055   -0.0041   -0.0001
          41    0.0000   -0.0104   -0.0045    0.0288   -0.0236    0.0040   -0.0054    0.0193
          42   -0.0031    0.0092   -0.0186    0.0835   -0.0535    0.0031    0.0042    0.0157
          43   -0.0030    0.0063   -0.0037   -0.0135   -0.0103   -0.0049   -0.0037   -0.0006
          44    0.0009   -0.0031    0.0037    0.0045   -0.0013    0.0043   -0.0036    0.0109
          45    0.0025    0.0166    0.0155    0.0187   -0.0021    0.0030    0.0019   -0.0005
          46   -0.0070   -0.0219    0.0127   -0.0082   -0.0125   -0.0051   -0.0025   -0.0100
          47    0.0027   -0.0057   -0.0205    0.0019   -0.0009    0.0047   -0.0040    0.0116
          48    0.0008   -0.0100   -0.0195    0.0162    0.0016    0.0038    0.0043   -0.0045
          49    0.0275    0.0011   -0.0070   -0.0196   -0.0119   -0.0088   -0.0011   -0.0054
          50    0.0701    0.0047   -0.0210   -0.0103   -0.0040   -0.0015   -0.0028    0.0093
          51    0.0897   -0.0043    0.0081   -0.0131   -0.0127   -0.0108    0.0025   -0.0092
          52   -0.0001    0.0216   -0.0021   -0.0168    0.0105    0.0016    0.0006   -0.0023
          53   -0.0022   -0.0027    0.0343   -0.0041    0.0233    0.0133   -0.0089    0.0172
          54   -0.0020    0.0388    0.0588    0.0029    0.0605    0.0243    0.0014    0.0048
          55    0.0021   -0.0102    0.0083   -0.0174   -0.0135   -0.0090   -0.0031   -0.0095
          56    0.0064    0.0084   -0.0239   -0.0070   -0.0009   -0.0014   -0.0030    0.0045
          57    0.0901   -0.0044    0.0122   -0.0061   -0.0082   -0.0099    0.0002   -0.0173
          58   -0.0001   -0.0394    0.0188   -0.0162    0.0014   -0.0005   -0.0043   -0.0076
          59   -0.0001   -0.0149   -0.0315   -0.0085    0.0215    0.0117   -0.0018    0.0128
          60   -0.0014   -0.0306   -0.0576   -0.0126    0.0655    0.0245    0.0126   -0.0025
          61    0.0007   -0.0144    0.0116   -0.0157   -0.0139   -0.0085   -0.0035   -0.0089
          62   -0.0052    0.0205   -0.0336   -0.0142   -0.0002   -0.0025   -0.0041    0.0076
          63   -0.0785    0.0021    0.0169   -0.0191   -0.0094   -0.0107   -0.0080   -0.0107
          64    0.0032    0.0162   -0.0315   -0.0267   -0.0122   -0.0079   -0.0128    0.0055
          65   -0.0071    0.0017   -0.0394   -0.0133   -0.0005   -0.0041    0.0068    0.0101
          66    0.0016   -0.0245    0.0143   -0.0066   -0.0076   -0.0145    0.0275   -0.0217
          67   -0.0083    0.0265   -0.0575   -0.0213   -0.0062    0.0004   -0.0756   -0.0083
          68   -0.0089   -0.0066   -0.0226   -0.0293   -0.0096   -0.0184    0.1035    0.0413
          69   -0.0225   -0.0302    0.0184   -0.0408   -0.0224   -0.0396    0.1889    0.0405
          70    0.0258    0.0221   -0.0196   -0.0637   -0.0329   -0.0305    0.1311    0.0747
          71   -0.0454   -0.0071   -0.0450   -0.0255   -0.0033   -0.0160    0.0805    0.0310
          72    0.0190   -0.0221    0.0124    0.0151    0.0024    0.0012   -0.0716   -0.0614
          73   -0.0071    0.0128   -0.0401   -0.0043    0.0004    0.0059   -0.1014   -0.0358
          74   -0.0040    0.0154   -0.0675    0.0138    0.0155    0.0200   -0.1560   -0.0430
          75   -0.0177   -0.0385    0.0181    0.0136    0.0033   -0.0067   -0.0153   -0.0565


   Root No.       9        10        11        12        13        14        15        16

                 9 A      10 A      11 A      12 A      13 A      14 A      15 A      16 A   

                 196.1     257.9     271.9     292.2     309.9     374.1     402.4     431.6
  
           1    0.0074    0.0018    0.0097    0.0284    0.0085    0.0028    0.0389    0.0386
           2   -0.0059   -0.0142   -0.0123   -0.0262    0.0181   -0.0052    0.0077    0.0069
           3    0.0169    0.0074   -0.0227    0.0131    0.0632    0.0213   -0.0190    0.0056
           4    0.0060    0.0008    0.0083    0.0256    0.0077    0.0030    0.0357    0.0355
           5   -0.0270   -0.0235   -0.0314   -0.0437    0.0216   -0.0019   -0.0073    0.0151
           6    0.0005    0.0021   -0.0462    0.0490    0.0636    0.0558   -0.0415    0.0596
           7    0.0244    0.0049    0.0205    0.0266    0.0017    0.0006    0.0151   -0.0044
           8    0.0035   -0.0134   -0.0052   -0.0287    0.0117   -0.0065   -0.0055   -0.0179
           9    0.0501   -0.0042    0.0090   -0.0364    0.0208   -0.0206    0.0227   -0.0228
          10    0.0359    0.0039    0.0332    0.0090   -0.0004   -0.0163    0.0319   -0.0223
          11    0.0094   -0.0140   -0.0060   -0.0456    0.0184   -0.0112   -0.0292   -0.0593
          12    0.0891   -0.0038    0.0526   -0.0822    0.0139   -0.0708    0.0744   -0.0764
          13    0.0005   -0.0050   -0.0097    0.0015   -0.0103    0.0108   -0.0333   -0.0087
          14    0.0031   -0.0114   -0.0009   -0.0126   -0.0134   -0.0001   -0.0106    0.0030
          15    0.0276   -0.0085   -0.0049   -0.0281   -0.0468   -0.0000   -0.0256    0.0271
          16   -0.0091   -0.0150   -0.0241   -0.0426   -0.0264    0.0077   -0.0629    0.0173
          17   -0.0021   -0.0176   -0.0098   -0.0440   -0.0278   -0.0014   -0.0392    0.0213
          18    0.0463   -0.0050    0.0106   -0.0548   -0.1078    0.0034   -0.1033    0.0818
          19   -0.0219   -0.0081   -0.0234    0.0148   -0.0029    0.0116    0.0026   -0.0224
          20    0.0144    0.0070    0.0177    0.0504   -0.0250    0.0148   -0.0224   -0.0301
          21   -0.0155   -0.0167   -0.0321    0.0056   -0.0358    0.0042    0.0482   -0.0011
          22   -0.0031    0.0037   -0.0021    0.0351   -0.0004    0.0129   -0.0270   -0.0402
          23    0.0306    0.0220    0.0434    0.0768   -0.0037    0.0073   -0.0387   -0.0662
          24   -0.0291   -0.0159   -0.0339    0.0020    0.0030   -0.0144    0.0896   -0.0260
          25   -0.0510   -0.0249   -0.0537   -0.0190    0.0011    0.0080    0.0471    0.0021
          26    0.0180    0.0160    0.0215    0.0613   -0.0339    0.0211   -0.0385   -0.0319
          27   -0.0295   -0.0137   -0.0473    0.0009   -0.0499    0.0127    0.0551    0.0147
          28   -0.0261   -0.0145   -0.0187   -0.0279    0.0049   -0.0045   -0.0048   -0.0052
          29   -0.0013   -0.0044    0.0123   -0.0054   -0.0085   -0.0105    0.0356    0.0276
          30   -0.0170    0.0152    0.0146    0.0054   -0.0329    0.0022   -0.0102   -0.0036
          31   -0.0392   -0.0218   -0.0453   -0.0634    0.0236   -0.0033   -0.0441   -0.0401
          32   -0.0037   -0.0133   -0.0125   -0.0247    0.0239   -0.0044    0.0091    0.0079
          33   -0.0275    0.0244    0.0357    0.0036   -0.0812   -0.0088    0.0000   -0.0029
          34   -0.0479   -0.0216   -0.0153   -0.0418   -0.0297   -0.0102   -0.0172   -0.0203
          35   -0.0260    0.0052    0.0448   -0.0117   -0.0937   -0.0284    0.0472    0.0241
          36   -0.0193    0.0165    0.0183    0.0047   -0.0421    0.0002   -0.0085   -0.0036
          37   -0.0232   -0.0138   -0.0232   -0.0294    0.0146   -0.0033   -0.0084   -0.0074
          38    0.0293    0.0044    0.0329    0.0422    0.0057   -0.0033    0.0808    0.0729
          39   -0.0364    0.0102    0.0245   -0.0027   -0.0738   -0.0035   -0.0139   -0.0116
          40    0.0023    0.0068    0.0039   -0.0030    0.0014   -0.0620   -0.0076    0.0081
          41    0.0004    0.0051   -0.0022   -0.0034   -0.0007    0.0161    0.0033    0.0001
          42   -0.0029    0.0027    0.0102   -0.0081    0.0027    0.0035   -0.0010    0.0009
          43    0.0051    0.0218   -0.0037   -0.0036    0.0011   -0.0369   -0.0014   -0.0075
          44    0.0004    0.0103   -0.0085    0.0035   -0.0058    0.0058    0.0080   -0.0084
          45   -0.0037   -0.0132    0.0015    0.0084   -0.0007    0.0003    0.0081   -0.0255
          46    0.0010    0.0019    0.0031    0.0006   -0.0029   -0.0292   -0.0060    0.0160
          47    0.0034    0.0148   -0.0139    0.0040    0.0004    0.0078   -0.0015    0.0067
          48   -0.0003   -0.0060   -0.0075    0.0108    0.0061    0.0169   -0.0100    0.0180
          49    0.0021    0.0170   -0.0061    0.0041   -0.0019   -0.0394   -0.0004   -0.0097
          50    0.0010    0.0204   -0.0102    0.0051   -0.0007    0.0130    0.0040   -0.0132
          51   -0.0071   -0.0126   -0.0058    0.0181    0.0036    0.0010    0.0058   -0.0308
          52    0.0080    0.0644   -0.0043   -0.0204   -0.0039    0.0518    0.0050    0.0042
          53   -0.0012   -0.0257   -0.0043    0.0109    0.0043   -0.0727   -0.0086    0.0050
          54   -0.0018   -0.0022    0.0064   -0.0048    0.0055    0.0185   -0.0053    0.0094
          55    0.0036    0.0132   -0.0047    0.0062    0.0045   -0.0343   -0.0074    0.0119
          56    0.0052    0.0199   -0.0188    0.0109    0.0006    0.0156   -0.0017    0.0058
          57    0.0016   -0.0135   -0.0210    0.0289    0.0077    0.0342   -0.0117    0.0262
          58   -0.0013   -0.0220    0.0212   -0.0167   -0.0012    0.1061    0.0069   -0.0119
          59    0.0020    0.0136   -0.0073   -0.0019   -0.0028    0.0080    0.0046   -0.0049
          60   -0.0036    0.0015    0.0057   -0.0008   -0.0034   -0.0390    0.0026   -0.0053
          61    0.0027    0.0097   -0.0024    0.0047    0.0036   -0.0366   -0.0086    0.0157
          62    0.0096    0.0301   -0.0244    0.0119    0.0108    0.0233    0.0011   -0.0055
          63    0.0128   -0.0091   -0.0267    0.0281    0.0433    0.0403   -0.0195    0.0447
          64    0.0020   -0.0673    0.0114    0.0099    0.0018   -0.0075   -0.0034   -0.0039
          65   -0.0216   -0.0137    0.0392   -0.0075    0.0212    0.0231   -0.0080    0.0144
          66   -0.0322    0.0354    0.0300   -0.0012    0.0214   -0.0283   -0.0041   -0.0072
          67   -0.0319   -0.1300    0.0382    0.0119    0.0148    0.0194   -0.0068    0.0090
          68    0.0225    0.0033    0.0326   -0.0112    0.0142    0.0123   -0.0117    0.0168
          69    0.0330   -0.0122    0.0532   -0.0087    0.0225   -0.0157   -0.0185    0.0176
          70    0.0950   -0.1224   -0.0160    0.0232   -0.0189    0.0160   -0.0021   -0.0181
          71   -0.0134   -0.0375    0.0837   -0.0223    0.0368    0.0253   -0.0250    0.0498
          72   -0.0749    0.0711    0.0176    0.0011    0.0217   -0.0391    0.0040   -0.0195
          73   -0.0538   -0.0399    0.0284    0.0021    0.0136   -0.0188   -0.0053    0.0065
          74   -0.0957   -0.0450    0.0514   -0.0019    0.0323    0.0437   -0.0027    0.0145
          75   -0.0769    0.1012    0.0500   -0.0180    0.0329   -0.0606   -0.0110    0.0105


   Root No.      17        18        19        20        21        22        23        24

                17 A      18 A      19 A      20 A      21 A      22 A      23 A      24 A   

                 467.7     554.6     585.2     617.8     620.4     661.8     711.1     791.2
  
           1   -0.0289   -0.0006   -0.0022   -0.0012    0.0031    0.0015   -0.0020    0.0013
           2   -0.0130    0.0016    0.0012   -0.0230    0.0082    0.0007   -0.0002    0.0022
           3   -0.0392    0.0129    0.0032    0.0071   -0.0078   -0.0116   -0.0119    0.0056
           4   -0.0255   -0.0009   -0.0027    0.0002    0.0023    0.0010   -0.0009    0.0010
           5   -0.0160   -0.0045    0.0025   -0.0732    0.0247    0.0048    0.0018    0.0041
           6   -0.0420    0.0074   -0.0057    0.0195   -0.0150   -0.0231    0.0072   -0.0476
           7    0.0043    0.0049   -0.0054    0.0559   -0.0207    0.0036   -0.0083   -0.0097
           8    0.0118    0.0054   -0.0012    0.0201   -0.0108   -0.0084   -0.0021   -0.0093
           9    0.0279   -0.0038    0.0051   -0.0237    0.0062   -0.0002   -0.0005   -0.0069
          10    0.0334   -0.0006   -0.0038    0.0534   -0.0215    0.0057   -0.0034    0.0352
          11    0.0424    0.0070    0.0015    0.0095   -0.0104   -0.0034    0.0037    0.0246
          12    0.1140   -0.0189    0.0085   -0.0118   -0.0041    0.0055    0.0094    0.1250
          13   -0.0055    0.0047    0.0018   -0.0294    0.0116    0.0078    0.0053   -0.0053
          14   -0.0088    0.0072   -0.0087    0.0747   -0.0288   -0.0031   -0.0085   -0.0183
          15   -0.0285    0.0003    0.0010   -0.0127    0.0055   -0.0004   -0.0027   -0.0294
          16   -0.0288    0.0058    0.0011   -0.0242    0.0076    0.0167    0.0180    0.0567
          17   -0.0278    0.0077   -0.0090    0.0704   -0.0288    0.0037    0.0023    0.0347
          18   -0.0856   -0.0026   -0.0097    0.0229   -0.0092    0.0241    0.0185    0.1324
          19    0.0136    0.0027    0.0098   -0.0248    0.0067   -0.0129   -0.0028   -0.0022
          20    0.0101   -0.0005    0.0021   -0.0099    0.0007   -0.0206   -0.0061    0.0155
          21    0.0160   -0.0045    0.0085    0.0033   -0.0027   -0.0228   -0.0090   -0.0165
          22    0.0050    0.0030    0.0115   -0.1176    0.0451   -0.0160   -0.0111   -0.0559
          23    0.0021    0.0073    0.0078   -0.1086    0.0425   -0.0231   -0.0241   -0.1125
          24    0.0144    0.0135    0.0166    0.0584   -0.0266   -0.0176   -0.0246   -0.1204
          25    0.0167    0.0044    0.0160    0.1073   -0.0498   -0.0174   -0.0055    0.0958
          26    0.0006   -0.0034    0.0191   -0.0654    0.0115   -0.0378   -0.0097    0.0959
          27    0.0056   -0.0086    0.0395    0.0114   -0.0273   -0.0552   -0.0139    0.1889
          28   -0.0001    0.0003   -0.0002   -0.0068    0.0026    0.0041   -0.0018    0.0023
          29   -0.0205   -0.0021    0.0018   -0.0403    0.0181    0.0078   -0.0006    0.0058
          30    0.0033    0.0016    0.0023    0.0117   -0.0056   -0.0039   -0.0035   -0.0000
          31    0.0146    0.0101    0.0000    0.0082   -0.0045   -0.0079   -0.0005   -0.0006
          32   -0.0206    0.0069    0.0018   -0.0300    0.0122   -0.0022   -0.0043    0.0096
          33    0.0230   -0.0097    0.0023    0.0069   -0.0013    0.0054    0.0075   -0.0136
          34    0.0260   -0.0066    0.0004   -0.0042    0.0009    0.0066    0.0079   -0.0142
          35    0.0186   -0.0192    0.0025   -0.0486    0.0272    0.0235    0.0176   -0.0187
          36    0.0070   -0.0010    0.0027    0.0091   -0.0039   -0.0013   -0.0012   -0.0038
          37   -0.0027    0.0039   -0.0005   -0.0025    0.0006    0.0011   -0.0038    0.0042
          38   -0.0566   -0.0050    0.0005   -0.0541    0.0251    0.0129   -0.0072    0.0193
          39    0.0276   -0.0098    0.0030    0.0081   -0.0036    0.0024    0.0085   -0.0171
          40    0.0063    0.0240    0.0312    0.0128    0.0672   -0.0251    0.0049   -0.0030
          41    0.0006    0.0269   -0.0525   -0.0096   -0.0298   -0.0238   -0.0051    0.0016
          42   -0.0046   -0.0267    0.0069   -0.0005   -0.0074   -0.0518   -0.0006   -0.0006
          43   -0.0145   -0.0558   -0.0063    0.0049    0.0009    0.0460    0.0391   -0.0048
          44   -0.0050    0.0482   -0.0430   -0.0128   -0.0690    0.0485    0.0444    0.0012
          45   -0.0292    0.0356    0.0345    0.0093    0.0217    0.1201    0.1003    0.0035
          46    0.0279    0.0825    0.0201   -0.0027   -0.0019    0.0164   -0.0232    0.0017
          47    0.0172    0.0074   -0.0196    0.0122    0.0807    0.0495   -0.0350    0.0025
          48    0.0356   -0.0347    0.0081   -0.0073   -0.0310    0.1342   -0.0916    0.0027
          49   -0.0122   -0.0603   -0.0026    0.0013   -0.0099   -0.0001   -0.0099    0.0011
          50   -0.0193    0.0044    0.0800    0.0001   -0.0239   -0.0176   -0.0312    0.0038
          51   -0.0363    0.0405   -0.0137    0.0009    0.0066   -0.0208   -0.0510    0.0077
          52    0.0079    0.0175   -0.0520   -0.0084   -0.0331   -0.0070   -0.0027   -0.0034
          53    0.0000   -0.0576   -0.0185   -0.0059   -0.0415   -0.0065   -0.0037   -0.0039
          54    0.0101    0.0077    0.0212    0.0034    0.0293   -0.0316   -0.0279    0.0030
          55    0.0131    0.0253    0.0516   -0.0075   -0.0481   -0.0155    0.0087    0.0055
          56    0.0164   -0.0456    0.0476    0.0055    0.0082   -0.0022    0.0221    0.0023
          57    0.0556   -0.0116   -0.0287    0.0006    0.0081   -0.0295    0.0726    0.0002
          58   -0.0137   -0.0467    0.0231    0.0032    0.0033   -0.0033    0.0065   -0.0004
          59   -0.0035    0.0018   -0.0275    0.0162    0.0972   -0.0058    0.0062    0.0013
          60   -0.0112    0.0139    0.0015   -0.0055   -0.0348   -0.0354    0.0235   -0.0009
          61    0.0194    0.0656    0.0495   -0.0073   -0.0345   -0.0012   -0.0094    0.0037
          62   -0.0101   -0.1501    0.0512    0.0062   -0.0218   -0.0519    0.0734    0.0102
          63    0.0539   -0.0128   -0.0360    0.0051    0.0263   -0.1203    0.1946    0.0215
          64   -0.0034   -0.0083   -0.0577   -0.0005    0.0080   -0.0010   -0.0124    0.0068
          65    0.0134    0.0192    0.0559   -0.0023   -0.0205   -0.0022    0.0081   -0.0075
          66   -0.0081   -0.0162   -0.0487    0.0023    0.0170    0.0038   -0.0157    0.0075
          67    0.0150    0.0489   -0.1065   -0.0039    0.0157   -0.0052    0.0004    0.0073
          68    0.0132   -0.0089    0.0692   -0.0008   -0.0220    0.0054    0.0161   -0.0083
          69    0.0173   -0.0049   -0.0782    0.0016    0.0236    0.0184    0.0241    0.0043
          70   -0.0236    0.0324   -0.0417   -0.0037    0.0042   -0.0292   -0.0569    0.0112
          71    0.0544    0.0118    0.0082   -0.0031   -0.0101    0.0314    0.0794   -0.0192
          72   -0.0212   -0.0287   -0.0276    0.0042    0.0118   -0.0020   -0.0326    0.0110
          73    0.0093   -0.0270   -0.0664    0.0011    0.0082    0.0132    0.0139    0.0036
          74    0.0189    0.0707    0.0238   -0.0043   -0.0202   -0.0157   -0.0003   -0.0025
          75    0.0102   -0.0827   -0.0457    0.0069    0.0197    0.0395    0.0366    0.0005


   Root No.      25        26        27        28        29        30        31        32

                25 A      26 A      27 A      28 A      29 A      30 A      31 A      32 A   

                 845.2     902.1     915.5     967.0     994.6    1017.3    1024.5    1026.6
  
           1    0.0030   -0.0056    0.0060    0.0042    0.0025    0.0063   -0.0038   -0.0055
           2   -0.0003    0.0007    0.0000   -0.0011   -0.0020    0.0006    0.0000   -0.0015
           3    0.0025   -0.0061    0.0103   -0.0001    0.0028   -0.0013   -0.0003    0.0026
           4    0.0032   -0.0060    0.0041    0.0042    0.0043    0.0036   -0.0037   -0.0039
           5    0.0119   -0.0250    0.0078    0.0366    0.0188    0.0629   -0.0324   -0.0262
           6    0.0516   -0.1502   -0.0489    0.0973    0.1913   -0.0153   -0.0829   -0.0342
           7    0.0003    0.0003   -0.0129   -0.0055    0.0038   -0.0258    0.0087    0.0057
           8    0.0059   -0.0137   -0.0055    0.0037    0.0028    0.0012   -0.0011   -0.0088
           9    0.0036   -0.0106   -0.0376   -0.0009    0.0016    0.0200    0.0273    0.0053
          10   -0.0009    0.0066    0.0588    0.0100    0.0195   -0.0368   -0.0443   -0.0050
          11    0.0007   -0.0004    0.0372    0.0112    0.0064    0.0083   -0.0404   -0.0173
          12   -0.0012    0.0073    0.1778    0.0434    0.0510   -0.0280   -0.1294   -0.0241
          13   -0.0027    0.0060   -0.0069   -0.0056   -0.0113    0.0020   -0.0102   -0.0006
          14   -0.0025    0.0047    0.0027    0.0006   -0.0084    0.0025   -0.0153   -0.0087
          15   -0.0021   -0.0002   -0.0045   -0.0062   -0.0189   -0.0080   -0.0267   -0.0069
          16   -0.0024   -0.0017    0.0474    0.0218    0.0489    0.0235    0.0501    0.0027
          17   -0.0010   -0.0016    0.0446    0.0226    0.0403    0.0200    0.0351   -0.0030
          18   -0.0023    0.0050    0.0862    0.0388    0.1093    0.0361    0.1482    0.0657
          19    0.0075   -0.0067    0.0089    0.0055    0.0061    0.0076    0.0047    0.0008
          20    0.0135   -0.0064   -0.0046    0.0039    0.0009    0.0210    0.0092    0.0089
          21    0.0066   -0.0011    0.0152    0.0050    0.0074   -0.0092    0.0006    0.0006
          22    0.0017   -0.0082    0.0432    0.0123    0.0176   -0.0457   -0.0166   -0.0250
          23   -0.0048   -0.0131    0.0827    0.0251    0.0441   -0.0258    0.0144   -0.0066
          24   -0.0174   -0.0075    0.0893    0.0280    0.0574    0.0530    0.0745    0.0456
          25    0.0315   -0.0153   -0.0516    0.0085   -0.0170    0.0858    0.0299    0.0306
          26    0.0519   -0.0500   -0.0392   -0.0040   -0.0048   -0.0579   -0.0327   -0.0419
          27    0.0877   -0.0794   -0.0871   -0.0076   -0.0186   -0.0723   -0.0448   -0.0545
          28    0.0006    0.0015    0.0036    0.0035   -0.0087    0.0218   -0.0036   -0.0061
          29   -0.0025    0.0052   -0.0009   -0.0112   -0.0004   -0.0316    0.0112    0.0166
          30    0.0020   -0.0105    0.0157   -0.0059   -0.0223   -0.0026    0.0026   -0.0015
          31   -0.0034   -0.0019   -0.0025   -0.0385    0.0078   -0.1331    0.0348    0.0495
          32   -0.0024   -0.0045    0.0171   -0.0461   -0.0220   -0.1315    0.0410    0.0521
          33   -0.0020    0.0081   -0.0361    0.0329    0.0479    0.0577   -0.0244   -0.0218
          34   -0.0050    0.0101   -0.0532    0.0062    0.0748   -0.0478    0.0013    0.0222
          35   -0.0109    0.0316   -0.0936    0.0369    0.1207    0.0415   -0.0240   -0.0040
          36    0.0005   -0.0051   -0.0010    0.0032    0.0006    0.0087   -0.0032   -0.0040
          37    0.0011   -0.0036    0.0127   -0.0057   -0.0192    0.0012    0.0028    0.0002
          38    0.0064   -0.0021    0.0444    0.0190   -0.0690    0.1430   -0.0258   -0.0481
          39   -0.0037    0.0084   -0.0467    0.0152    0.0619   -0.0157   -0.0046    0.0061
          40    0.0398    0.0067    0.0003    0.0640   -0.0094   -0.0084    0.0144   -0.0126
          41   -0.0195    0.0046   -0.0047    0.1037   -0.0075   -0.0029   -0.0066    0.0115
          42   -0.0025   -0.0046    0.0020   -0.0584    0.0046    0.0038   -0.0009   -0.0002
          43    0.0622    0.0092    0.0004   -0.0040    0.0018    0.0034   -0.0105    0.0113
          44   -0.0152   -0.0060    0.0014   -0.0387    0.0002   -0.0029    0.0123   -0.0171
          45   -0.0120   -0.0019   -0.0030    0.0185   -0.0014   -0.0008   -0.0049    0.0022
          46   -0.0265   -0.0054    0.0015   -0.0519    0.0011    0.0003    0.0094   -0.0147
          47   -0.0066    0.0005    0.0011   -0.0352    0.0061    0.0016   -0.0030    0.0000
          48    0.0108    0.0186   -0.0011    0.0303   -0.0001   -0.0040    0.0012   -0.0027
          49   -0.0501   -0.0168    0.0008    0.0105   -0.0002   -0.0017    0.0022   -0.0034
          50   -0.0040    0.0055   -0.0029    0.0013   -0.0008    0.0001   -0.0019    0.0019
          51    0.0303    0.0227   -0.0026   -0.0116    0.0002   -0.0004    0.0035   -0.0025
          52    0.0333    0.0050    0.0019   -0.0095    0.0002   -0.0003    0.0036   -0.0036
          53    0.0348    0.0024    0.0027   -0.0307    0.0022    0.0011    0.0019   -0.0026
          54   -0.0246   -0.0018   -0.0017    0.0153   -0.0011   -0.0003   -0.0016    0.0023
          55   -0.0436    0.0070   -0.0050   -0.0181    0.0068    0.0100   -0.0285    0.0366
          56   -0.0353    0.0048   -0.0025    0.0041   -0.0136    0.0004    0.0057    0.0072
          57    0.0182   -0.0147    0.0054   -0.0023   -0.0169    0.0003    0.0082    0.0049
          58    0.0015    0.0001    0.0004   -0.0050   -0.0007   -0.0004    0.0019   -0.0015
          59   -0.0065   -0.0049    0.0004   -0.0314    0.0063    0.0054   -0.0098    0.0089
          60    0.0016   -0.0007   -0.0002    0.0120   -0.0031   -0.0012    0.0028   -0.0016
          61   -0.0234   -0.0081   -0.0025   -0.0645    0.0100    0.0185   -0.0318    0.0346
          62   -0.1055    0.0772   -0.0111    0.1169   -0.0091   -0.0263    0.0183   -0.0105
          63   -0.0521    0.2570   -0.0207   -0.0413    0.0816   -0.0183   -0.0104   -0.0898
          64   -0.0485   -0.0063   -0.0030    0.0003   -0.0003   -0.0021    0.0073   -0.0185
          65    0.0285    0.0050    0.0037   -0.0019    0.0039   -0.0008    0.0076   -0.0192
          66   -0.0195    0.0163   -0.0075   -0.0048   -0.0012    0.0036   -0.0069    0.0086
          67    0.0412    0.0204   -0.0077   -0.0068   -0.0088    0.0109   -0.0504    0.1092
          68   -0.0114   -0.0233    0.0081    0.0052    0.0047   -0.0073    0.0285   -0.0581
          69    0.0071   -0.0199   -0.0004    0.0001   -0.0082    0.0026   -0.0243    0.0662
          70    0.0009    0.0628   -0.0133   -0.0180    0.0032    0.0112   -0.0095    0.0088
          71    0.0405   -0.0660    0.0175    0.0240   -0.0090   -0.0055   -0.0141    0.0551
          72   -0.0421    0.0187   -0.0086   -0.0092    0.0034   -0.0004    0.0117   -0.0384
          73   -0.0621   -0.0435    0.0034    0.0144   -0.0040   -0.0069    0.0102   -0.0111
          74    0.1041    0.0431   -0.0043   -0.0200   -0.0020    0.0136   -0.0317    0.0738
          75   -0.1029   -0.0795    0.0097    0.0312   -0.0036   -0.0157    0.0289   -0.0486


   Root No.      33        34        35        36        37        38        39        40

                33 A      34 A      35 A      36 A      37 A      38 A      39 A      40 A   

                1037.1    1052.6    1057.0    1086.9    1134.3    1170.4    1221.9    1227.0
  
           1    0.0033    0.0024   -0.0009   -0.0018    0.0012    0.0597    0.0003    0.0006
           2    0.0029    0.0006   -0.0026    0.0025    0.0002    0.0313   -0.0035    0.0024
           3   -0.0040    0.0026    0.0026    0.0392    0.0179   -0.0065    0.0056    0.0087
           4    0.0013    0.0018   -0.0006   -0.0024    0.0007    0.0439    0.0005   -0.0026
           5   -0.0091    0.0141    0.0029   -0.0439   -0.0179   -0.0040   -0.0175   -0.0143
           6   -0.0627    0.0548   -0.0114   -0.1463   -0.0713   -0.0651   -0.0340    0.0049
           7    0.0095   -0.0018   -0.0081    0.0022   -0.0019   -0.0427   -0.0039    0.0000
           8    0.0190    0.0027   -0.0070   -0.0055    0.0009    0.0021    0.0013   -0.0001
           9    0.0096   -0.0025   -0.0037   -0.0146   -0.0075    0.0129    0.0017   -0.0035
          10   -0.0219    0.0069    0.0004    0.0132    0.0008   -0.0235   -0.0053    0.0029
          11   -0.0062    0.0137   -0.0051    0.0235    0.0066   -0.1809   -0.0165    0.0178
          12   -0.0829    0.0227    0.0219    0.0203    0.0024    0.0557   -0.0020    0.0052
          13   -0.0140   -0.0008    0.0077    0.0004    0.0039   -0.0060   -0.0034    0.0007
          14    0.0062    0.0017   -0.0018    0.0050    0.0015    0.0197    0.0030   -0.0035
          15   -0.0134   -0.0035    0.0180   -0.0022    0.0160    0.0024    0.0000   -0.0005
          16    0.0547    0.0147   -0.0450    0.0026   -0.0153    0.0792    0.0045   -0.0066
          17    0.0565    0.0117   -0.0406    0.0058   -0.0130    0.0742    0.0087   -0.0096
          18    0.0265   -0.0056   -0.0293   -0.0035   -0.0083   -0.0689   -0.0124    0.0073
          19    0.0012   -0.0011    0.0015   -0.0033   -0.0049    0.0184    0.0052    0.0001
          20   -0.0238   -0.0072    0.0135   -0.0070   -0.0079    0.0077    0.0071    0.0020
          21    0.0085    0.0018   -0.0206    0.0078   -0.0276   -0.0095    0.0070    0.0021
          22    0.0815    0.0122   -0.0341    0.0122    0.0141    0.0277   -0.0051   -0.0149
          23    0.0841   -0.0020    0.0208   -0.0105    0.1171    0.0065   -0.0396   -0.0227
          24   -0.0094   -0.0286    0.1138   -0.0470    0.1857   -0.0416   -0.0609   -0.0156
          25   -0.0867   -0.0364    0.1087   -0.0412    0.0693    0.0508   -0.0042   -0.0120
          26    0.0766    0.0037   -0.0037   -0.0033    0.0603   -0.0139   -0.0116    0.0017
          27    0.0948   -0.0084    0.0364   -0.0175    0.1380   -0.0238   -0.0295   -0.0050
          28    0.0041    0.0022   -0.0010    0.0010   -0.0012   -0.0465    0.0014    0.0023
          29   -0.0155   -0.0073    0.0061   -0.0025   -0.0004   -0.0364    0.0018   -0.0022
          30    0.0056   -0.0033   -0.0021   -0.0333   -0.0100    0.0101   -0.0003   -0.0013
          31   -0.0343   -0.0251    0.0103   -0.0236   -0.0032    0.0254   -0.0198   -0.0170
          32   -0.0348   -0.0294    0.0103   -0.0519   -0.0126    0.0118   -0.0061    0.0033
          33    0.0080    0.0180   -0.0027    0.0588    0.0160   -0.0018   -0.0129   -0.0295
          34   -0.0283    0.0061    0.0044    0.0654    0.0208    0.0296    0.0138   -0.0043
          35   -0.0224    0.0323    0.0021    0.1470    0.0419   -0.0165    0.0263    0.0488
          36    0.0030    0.0031   -0.0015   -0.0023   -0.0006    0.0040    0.0026    0.0048
          37    0.0018   -0.0021   -0.0010   -0.0181   -0.0062   -0.0269    0.0070    0.0026
          38    0.0368    0.0113   -0.0102   -0.0238   -0.0140   -0.1583   -0.0142   -0.0157
          39   -0.0118    0.0065    0.0032    0.0555    0.0176    0.0398   -0.0172    0.0001
          40   -0.0075    0.0237    0.0024    0.0033    0.0012   -0.0003   -0.0060   -0.0654
          41    0.0036   -0.0261   -0.0038   -0.0007   -0.0008    0.0006   -0.0053    0.0460
          42   -0.0001    0.0038    0.0005    0.0009   -0.0008   -0.0006    0.0028   -0.0017
          43    0.0047   -0.0279   -0.0036   -0.0001   -0.0062    0.0008   -0.0061    0.0676
          44   -0.0067    0.0345    0.0025    0.0001    0.0049   -0.0001    0.0059   -0.0716
          45    0.0015   -0.0059   -0.0048   -0.0033    0.0016    0.0016   -0.0007    0.0106
          46   -0.0029    0.0181    0.0033   -0.0019   -0.0002    0.0016   -0.0015    0.1284
          47    0.0035   -0.0034    0.0035   -0.0028    0.0015    0.0002    0.0104    0.0031
          48    0.0037   -0.0011    0.0060   -0.0032    0.0003    0.0014    0.0047   -0.0304
          49    0.0022    0.0006    0.0034   -0.0050    0.0116    0.0001    0.0265    0.0474
          50    0.0024    0.0027    0.0095    0.0035   -0.0160    0.0015   -0.0320   -0.0066
          51    0.0016   -0.0013    0.0197    0.0131   -0.0298   -0.0029    0.0221    0.0100
          52   -0.0021    0.0047    0.0014    0.0020   -0.0020   -0.0003   -0.0011   -0.0159
          53   -0.0011    0.0019    0.0013    0.0016   -0.0020   -0.0002   -0.0013   -0.0026
          54    0.0011   -0.0021   -0.0003   -0.0006    0.0007   -0.0000    0.0012    0.0060
          55    0.0129   -0.0264   -0.0064   -0.0038   -0.0026   -0.0030    0.0349   -0.0823
          56   -0.0076    0.0342   -0.0108    0.0094   -0.0057    0.0020   -0.0733    0.0193
          57   -0.0084   -0.0101   -0.0143    0.0164    0.0081   -0.0025    0.0154    0.0031
          58   -0.0013    0.0055    0.0000    0.0008   -0.0003   -0.0000   -0.0056   -0.0089
          59    0.0048   -0.0149   -0.0013   -0.0020    0.0010   -0.0011    0.0230   -0.0183
          60   -0.0020    0.0034   -0.0010    0.0015   -0.0005    0.0002   -0.0078    0.0083
          61    0.0116   -0.0747   -0.0146    0.0126   -0.0105    0.0032   -0.1173   -0.0774
          62    0.0050    0.1642    0.0323   -0.0482    0.0143   -0.0145    0.3173    0.0587
          63    0.0569   -0.0588    0.1016   -0.0814   -0.0297   -0.0035   -0.0925    0.0182
          64   -0.0068   -0.0141   -0.0020    0.0052   -0.0070    0.0002   -0.0213   -0.0368
          65   -0.0107   -0.0290   -0.0180   -0.0026    0.0120   -0.0017    0.0297    0.0105
          66   -0.0076    0.0166   -0.0288   -0.0124    0.0170    0.0027   -0.0237   -0.0118
          67    0.0407    0.1254    0.0260   -0.0175    0.0035    0.0076   -0.0594    0.0180
          68   -0.0150   -0.0718    0.0069    0.0166   -0.0122   -0.0057    0.0385   -0.0056
          69    0.0410    0.0787    0.0708    0.0094   -0.0305    0.0010   -0.0378    0.0265
          70   -0.0331    0.0225   -0.1008   -0.0399    0.0670    0.0032    0.0077    0.0270
          71    0.0612    0.0421    0.1315    0.0355   -0.0741   -0.0008    0.0135    0.0117
          72   -0.0284   -0.0331   -0.0500   -0.0085    0.0225    0.0001   -0.0193   -0.0269
          73    0.0156   -0.0074    0.0590    0.0244   -0.0377   -0.0028   -0.0007   -0.0096
          74    0.0103    0.0790   -0.0264   -0.0304    0.0382    0.0018    0.0321    0.0835
          75    0.0170   -0.0522    0.0919    0.0473   -0.0676   -0.0049   -0.0045   -0.0350


   Root No.      41        42        43        44        45        46        47        48

                41 A      42 A      43 A      44 A      45 A      46 A      47 A      48 A   

                1261.8    1268.9    1273.0    1276.0    1277.5    1297.3    1302.7    1325.9
  
           1   -0.0063    0.0033    0.0100    0.0027    0.0190    0.0030    0.0253   -0.0062
           2   -0.0082    0.0027    0.0066    0.0075    0.0204    0.0033    0.0102   -0.0398
           3    0.0026   -0.0001   -0.0027   -0.0015   -0.0050    0.0031   -0.0079    0.0069
           4   -0.0076    0.0031    0.0092    0.0021    0.0165    0.0023    0.0211    0.0023
           5   -0.0693    0.0268    0.0906    0.0127    0.1216   -0.0729   -0.1636    0.2969
           6    0.0111   -0.0123   -0.0258   -0.0035   -0.0387   -0.0085    0.0206   -0.0472
           7   -0.0063    0.0014    0.0041    0.0023    0.0082   -0.0040   -0.0119    0.0181
           8   -0.0002    0.0017    0.0026    0.0022    0.0069    0.0059    0.0053   -0.0250
           9    0.0027   -0.0011   -0.0021   -0.0020   -0.0060   -0.0013   -0.0017    0.0054
          10   -0.0058    0.0003    0.0016    0.0009    0.0019   -0.0065   -0.0170    0.0125
          11   -0.0338    0.0186    0.0519    0.0262    0.1299    0.0265    0.1924    0.0376
          12    0.0080   -0.0048   -0.0144   -0.0061   -0.0338   -0.0062   -0.0342   -0.0191
          13   -0.0025   -0.0004    0.0016    0.0023    0.0075   -0.0016    0.0104   -0.0018
          14    0.0032   -0.0020   -0.0039   -0.0025   -0.0126   -0.0060   -0.0241   -0.0006
          15    0.0009   -0.0003   -0.0009   -0.0010   -0.0017    0.0019    0.0042    0.0022
          16    0.0338   -0.0213   -0.0405   -0.0329   -0.0830   -0.0055    0.1300    0.2063
          17    0.0273   -0.0158   -0.0319   -0.0258   -0.0712   -0.0074    0.0627    0.1392
          18   -0.0266    0.0119    0.0297    0.0232    0.0667    0.0004   -0.0841   -0.1458
          19    0.0022    0.0011   -0.0017   -0.0018   -0.0064    0.0044   -0.0207   -0.0191
          20    0.0026    0.0005   -0.0016   -0.0025   -0.0036    0.0073    0.0121    0.0083
          21   -0.0015    0.0021    0.0034    0.0015    0.0050    0.0055    0.0040    0.0026
          22   -0.0002   -0.0048   -0.0000    0.0045   -0.0176   -0.0327   -0.0922   -0.0373
          23   -0.0002   -0.0156   -0.0079    0.0029   -0.0159   -0.0611   -0.0455   -0.0063
          24   -0.0046   -0.0130   -0.0104   -0.0018    0.0167   -0.0321    0.0782    0.0257
          25    0.0031   -0.0059   -0.0035   -0.0028   -0.0191   -0.0337   -0.0593   -0.0039
          26    0.0012   -0.0018   -0.0068   -0.0031   -0.0001   -0.0017    0.0206    0.0010
          27   -0.0034   -0.0060   -0.0055   -0.0004    0.0041   -0.0331    0.0001    0.0038
          28   -0.0171   -0.0037   -0.0136   -0.0039   -0.0233    0.0040   -0.0025   -0.0068
          29    0.0209   -0.0035   -0.0092   -0.0031   -0.0169   -0.0001   -0.0093    0.0206
          30   -0.0040   -0.0052   -0.0138    0.0159    0.0113    0.0026    0.0015   -0.0006
          31    0.0283    0.0360    0.1068   -0.0933   -0.0339   -0.0283    0.0284   -0.0214
          32   -0.0734    0.0029    0.0040   -0.0157   -0.0201   -0.0035    0.0117    0.0111
          33    0.2175    0.0335    0.1134   -0.0730    0.0041   -0.0303   -0.0008   -0.0204
          34    0.2649   -0.0201   -0.0346    0.0616    0.0677    0.0004   -0.0110    0.0190
          35   -0.1508   -0.0265   -0.0892    0.0516   -0.0096    0.0225   -0.0065    0.0019
          36   -0.0284   -0.0050   -0.0158    0.0122    0.0031    0.0036   -0.0004    0.0003
          37    0.0356   -0.0184   -0.0498    0.0384    0.0082    0.0113   -0.0040    0.0019
          38    0.0804    0.0156    0.0507   -0.0726   -0.0672   -0.0197    0.0014   -0.0649
          39   -0.1735    0.0485    0.1230   -0.1188   -0.0609   -0.0221    0.0221   -0.0205
          40   -0.0015    0.0030    0.0002    0.0028   -0.0010    0.0094   -0.0002    0.0007
          41    0.0013   -0.0017    0.0000   -0.0005   -0.0001   -0.0018    0.0007    0.0002
          42   -0.0002   -0.0001   -0.0001   -0.0005    0.0003   -0.0017   -0.0002    0.0000
          43    0.0010   -0.0071   -0.0022   -0.0021    0.0016   -0.0248    0.0031   -0.0029
          44   -0.0013    0.0056    0.0020    0.0024   -0.0014    0.0199   -0.0032    0.0018
          45    0.0004   -0.0001    0.0002   -0.0001   -0.0003   -0.0003   -0.0012   -0.0011
          46    0.0034   -0.0057   -0.0010   -0.0063    0.0021   -0.0192   -0.0004   -0.0019
          47    0.0004   -0.0003    0.0001   -0.0009    0.0001   -0.0003    0.0003   -0.0009
          48   -0.0006    0.0015    0.0005    0.0012   -0.0003    0.0059    0.0013   -0.0009
          49    0.0042    0.0173    0.0103   -0.0008   -0.0039    0.0818   -0.0110    0.0126
          50   -0.0002    0.0008   -0.0028    0.0004    0.0008   -0.0048    0.0016   -0.0025
          51   -0.0005    0.0002    0.0005   -0.0015    0.0020   -0.0017    0.0013    0.0039
          52   -0.0007   -0.0004   -0.0010    0.0001    0.0003   -0.0051    0.0007   -0.0006
          53   -0.0003   -0.0009   -0.0010   -0.0004    0.0004   -0.0061    0.0007   -0.0008
          54    0.0003    0.0007    0.0006    0.0000   -0.0002    0.0043   -0.0003    0.0007
          55   -0.0037   -0.0045   -0.0006    0.0014    0.0014   -0.0164    0.0039   -0.0029
          56    0.0007   -0.0026   -0.0034    0.0027   -0.0016   -0.0140   -0.0004    0.0014
          57   -0.0001   -0.0003    0.0007   -0.0010   -0.0001    0.0020   -0.0021    0.0026
          58   -0.0001    0.0003   -0.0004    0.0007   -0.0003    0.0009   -0.0001    0.0002
          59   -0.0009    0.0006    0.0014   -0.0001    0.0007    0.0023    0.0001    0.0005
          60   -0.0000   -0.0003   -0.0005   -0.0000   -0.0002   -0.0012   -0.0001    0.0001
          61   -0.0000    0.0141   -0.0018    0.0121   -0.0068    0.0398   -0.0052    0.0077
          62   -0.0057   -0.0499   -0.0017   -0.0263    0.0194   -0.1453    0.0195   -0.0254
          63    0.0068    0.0248   -0.0010    0.0092   -0.0083    0.0750   -0.0072    0.0054
          64   -0.0028   -0.0266   -0.0014   -0.0023    0.0029   -0.0267    0.0037   -0.0057
          65    0.0006   -0.0061   -0.0024   -0.0148    0.0061    0.0187   -0.0041    0.0033
          66    0.0001    0.0095   -0.0121   -0.0114    0.0060   -0.0114    0.0004   -0.0039
          67    0.0032   -0.0428   -0.0317   -0.0910    0.0393    0.0801   -0.0199    0.0069
          68   -0.0038   -0.0431    0.0594    0.0901   -0.0423   -0.0271    0.0124   -0.0009
          69   -0.0036   -0.1499    0.1075    0.1159   -0.0598    0.0355    0.0057    0.0056
          70    0.0078    0.2151   -0.0243    0.0568   -0.0275   -0.0532    0.0090    0.0001
          71    0.0031    0.0879   -0.0634   -0.0775    0.0401    0.0134   -0.0050    0.0012
          72   -0.0052   -0.1371    0.0375    0.0088   -0.0054    0.0100   -0.0013   -0.0024
          73    0.0009    0.0936    0.0192    0.0887   -0.0406   -0.0617    0.0160   -0.0006
          74    0.0044    0.0704    0.0800    0.1571   -0.0790    0.0088    0.0129    0.0066
          75    0.0011    0.1315   -0.0245    0.0377   -0.0139   -0.0885    0.0146   -0.0018


   Root No.      49        50        51        52        53        54        55        56

                49 A      50 A      51 A      52 A      53 A      54 A      55 A      56 A   

                1367.2    1384.7    1387.3    1435.7    1514.2    1660.4    1676.0    1881.7
  
           1    0.0153    0.0012   -0.0054    0.0206    0.0058    0.0048    0.0481   -0.0017
           2   -0.0204    0.0024    0.0042   -0.0503   -0.0319   -0.0093   -0.1224    0.0053
           3   -0.0018   -0.0019   -0.0015    0.0032    0.0228   -0.0025    0.0140   -0.0035
           4    0.0143    0.0020   -0.0088    0.0206    0.0072    0.0036    0.0453    0.0040
           5   -0.0511   -0.0126    0.0336    0.0130    0.0241   -0.0083    0.0247    0.0059
           6    0.0139    0.0062   -0.0023   -0.0074   -0.0711    0.0133   -0.0375    0.0020
           7   -0.0157   -0.0011    0.0061   -0.0413    0.0076   -0.0327   -0.0544    0.0016
           8   -0.0203    0.0014   -0.0049   -0.0344    0.0581   -0.0321    0.1272   -0.0048
           9    0.0114    0.0002   -0.0005    0.0278   -0.0190    0.0226   -0.0107    0.0011
          10   -0.0254   -0.0010    0.0063   -0.0448   -0.0027   -0.0079   -0.0326    0.0024
          11    0.2029   -0.0005   -0.0290    0.1270    0.0083   -0.0734   -0.0778    0.0008
          12   -0.0366    0.0003    0.0048   -0.0169   -0.0214    0.0279    0.0144   -0.0008
          13   -0.0208    0.0021    0.0028   -0.0133   -0.0523    0.1233    0.0465    0.0014
          14    0.0161   -0.0004   -0.0007    0.0621   -0.0407    0.0515   -0.0176    0.0014
          15    0.0018   -0.0012   -0.0009   -0.0099    0.0352   -0.0746   -0.0170   -0.0013
          16   -0.0077   -0.0058    0.0172   -0.0950    0.0042   -0.0188   -0.0579    0.0006
          17    0.0236   -0.0048    0.0091   -0.0077    0.0053   -0.0399   -0.0620    0.0021
          18    0.0002    0.0034   -0.0108    0.0396   -0.0176    0.0356    0.0470   -0.0011
          19   -0.0106   -0.0008   -0.0036    0.0609    0.0354   -0.0925   -0.0411   -0.0009
          20   -0.0044   -0.0006   -0.0003   -0.0084    0.0203   -0.0125    0.0018    0.0017
          21    0.0052   -0.0003   -0.0002   -0.0216    0.0033    0.0417    0.0200    0.0031
          22    0.1602   -0.0036   -0.0058   -0.0505   -0.0069   -0.0100   -0.0152    0.0032
          23    0.1399   -0.0011    0.0001   -0.0938   -0.0552    0.0647    0.0158    0.0072
          24   -0.1452    0.0061    0.0090    0.0604   -0.0525    0.0128   -0.0097   -0.0036
          25    0.2059   -0.0062   -0.0037   -0.1639    0.0237   -0.0291    0.0104    0.0026
          26   -0.0963    0.0021    0.0021    0.1077   -0.0254   -0.0247   -0.0253   -0.0118
          27   -0.0063    0.0001    0.0029    0.0043   -0.0585    0.0264    0.0136   -0.0035
          28   -0.0014    0.0054   -0.0211   -0.0025   -0.0005    0.0003   -0.0009   -0.0002
          29    0.0062    0.0095   -0.0419    0.0151    0.0021    0.0048    0.0160   -0.0007
          30    0.0006   -0.0023    0.0122   -0.0015   -0.0029   -0.0016   -0.0021    0.0005
          31    0.0277   -0.0460    0.1685    0.0397    0.0193    0.0038    0.0473   -0.0024
          32    0.0290   -0.0333    0.1228    0.0418    0.0106    0.0046    0.0341   -0.0189
          33   -0.0217    0.0222   -0.0854   -0.0285   -0.0164    0.0012   -0.0402    0.0038
          34    0.0119   -0.0257    0.0908    0.0173    0.0138    0.0004    0.0170   -0.0057
          35    0.0147   -0.0438    0.1580    0.0217    0.0290    0.0003    0.0254   -0.0006
          36    0.0015   -0.0067    0.0268    0.0025    0.0062   -0.0025    0.0120   -0.0018
          37    0.0030    0.0029   -0.0103    0.0006   -0.0019   -0.0001   -0.0005    0.0002
          38    0.0015   -0.0566    0.2175   -0.0004    0.0095   -0.0006   -0.0020    0.0020
          39   -0.0080    0.0200   -0.0790   -0.0078   -0.0063    0.0030   -0.0090    0.0043
          40   -0.0002   -0.0003    0.0008    0.0002    0.0010    0.0022   -0.0009    0.0045
          41   -0.0006   -0.0003    0.0001    0.0004   -0.0032   -0.0036    0.0023    0.0034
          42    0.0002    0.0003   -0.0001   -0.0005   -0.0008    0.0007   -0.0006   -0.0024
          43   -0.0013    0.0009   -0.0010    0.0019    0.0034   -0.0023    0.0019    0.1758
          44    0.0015   -0.0009    0.0010   -0.0013   -0.0050   -0.0045    0.0014    0.1469
          45    0.0016   -0.0002   -0.0007    0.0007    0.0078    0.0020   -0.0018   -0.1154
          46    0.0006   -0.0003   -0.0023    0.0003    0.0075    0.0048   -0.0035   -0.0607
          47    0.0003   -0.0010   -0.0005    0.0013    0.0100    0.0061   -0.0005    0.2140
          48   -0.0000   -0.0001    0.0007    0.0005    0.0004   -0.0030    0.0021   -0.0610
          49    0.0042   -0.0088    0.0016   -0.0061   -0.0140    0.0122   -0.0042   -0.0124
          50   -0.0005   -0.0053   -0.0032    0.0050    0.0764    0.1036   -0.0469   -0.0137
          51   -0.0014    0.0035    0.0036   -0.0063   -0.0638   -0.0472    0.0244    0.0075
          52    0.0001    0.0016    0.0001   -0.0002    0.0002   -0.0000   -0.0004   -0.1126
          53    0.0001    0.0010   -0.0002    0.0001    0.0021    0.0018   -0.0011   -0.1073
          54   -0.0004   -0.0009    0.0002    0.0001   -0.0019   -0.0008    0.0006    0.0798
          55   -0.0018    0.0041    0.0014   -0.0005   -0.0154   -0.0219    0.0106    0.0147
          56    0.0007    0.0058    0.0019   -0.0027   -0.0593   -0.0786    0.0384   -0.0208
          57   -0.0003   -0.0015   -0.0000    0.0001    0.0101    0.0366   -0.0216    0.0076
          58    0.0000    0.0002   -0.0000    0.0001   -0.0009   -0.0016    0.0011    0.0216
          59   -0.0004    0.0006    0.0003   -0.0012   -0.0049   -0.0009   -0.0014   -0.1445
          60    0.0001   -0.0002   -0.0000    0.0003    0.0010    0.0007    0.0000    0.0459
          61    0.0018    0.0008    0.0022   -0.0020   -0.0380   -0.0508    0.0282   -0.0153
          62   -0.0078    0.0099   -0.0026    0.0027    0.0231   -0.0001   -0.0051   -0.0022
          63    0.0039   -0.0104    0.0009    0.0038    0.0422    0.0030    0.0069   -0.0126
          64   -0.0024   -0.0271   -0.0079    0.0023    0.0121    0.0062   -0.0034   -0.0022
          65    0.0024    0.0309    0.0085   -0.0023   -0.0185   -0.0164    0.0077    0.0039
          66   -0.0003   -0.0269   -0.0080    0.0015    0.0183    0.0108   -0.0050   -0.0019
          67    0.0138    0.1972    0.0459    0.0037    0.0604    0.0557   -0.0247    0.0039
          68   -0.0084   -0.0623   -0.0137    0.0010   -0.0203   -0.0149    0.0053   -0.0082
          69   -0.0026    0.0949    0.0226    0.0089    0.0396    0.0304   -0.0157   -0.0023
          70    0.0037    0.0997    0.0213    0.0043    0.0289    0.0107   -0.0047    0.0061
          71   -0.0044   -0.1903   -0.0423   -0.0101   -0.0441   -0.0131    0.0084   -0.0017
          72    0.0007    0.0476    0.0100    0.0034    0.0122   -0.0014   -0.0001   -0.0038
          73   -0.0035    0.0537    0.0123    0.0052    0.0131    0.0083   -0.0055   -0.0012
          74   -0.0090   -0.1258   -0.0284   -0.0002   -0.0081   -0.0023    0.0011   -0.0012
          75    0.0023    0.1923    0.0445    0.0069    0.0257    0.0199   -0.0096    0.0077


   Root No.      57        58        59        60        61        62        63        64

                57 A      58 A      59 A      60 A      61 A      62 A      63 A      64 A   

                1947.1    2649.4    2657.1    2667.7    2668.1    2686.3    2705.5    2745.5
  
           1   -0.0012   -0.0029   -0.0001    0.0052    0.0021   -0.0004   -0.0390   -0.0055
           2    0.0054   -0.0017   -0.0001    0.0009    0.0002   -0.0001    0.0031    0.0019
           3   -0.0037   -0.0017   -0.0000   -0.0015   -0.0005   -0.0000   -0.0004   -0.0000
           4    0.0042    0.0561    0.0030   -0.0850   -0.0325    0.0050    0.5252    0.0574
           5    0.0053   -0.0024   -0.0002    0.0024    0.0009   -0.0018   -0.0053   -0.0014
           6   -0.0016   -0.0003    0.0001   -0.0002    0.0001    0.0008   -0.0042    0.0001
           7    0.0013   -0.0005    0.0000    0.0000    0.0000   -0.0007    0.0067   -0.0129
           8   -0.0043    0.0008    0.0001   -0.0006   -0.0002   -0.0011   -0.0002   -0.0026
           9    0.0016   -0.0002    0.0000    0.0002   -0.0000    0.0004   -0.0027    0.0049
          10   -0.0019    0.0001   -0.0007    0.0075    0.0015    0.0047   -0.1204    0.1853
          11    0.0001   -0.0001    0.0001    0.0003   -0.0000   -0.0003   -0.0016   -0.0041
          12   -0.0008    0.0001    0.0001   -0.0024   -0.0001   -0.0013    0.0401   -0.0606
          13    0.0032   -0.0001   -0.0002   -0.0002    0.0002    0.0042    0.0001    0.0177
          14    0.0016    0.0000    0.0001    0.0001   -0.0002   -0.0047    0.0016   -0.0277
          15   -0.0015    0.0000    0.0001    0.0001   -0.0001   -0.0010   -0.0006    0.0022
          16   -0.0023    0.0005    0.0007    0.0020   -0.0023   -0.0683    0.0102   -0.2545
          17    0.0026   -0.0008   -0.0010   -0.0029    0.0041    0.1011   -0.0144    0.3578
          18   -0.0023    0.0002   -0.0001    0.0000    0.0002   -0.0061    0.0006   -0.0162
          19   -0.0025   -0.0001    0.0001    0.0003   -0.0001   -0.0173    0.0006   -0.0001
          20   -0.0001    0.0001    0.0011   -0.0010    0.0013    0.0382    0.0003   -0.0105
          21    0.0016   -0.0001   -0.0006    0.0005   -0.0007   -0.0208    0.0000    0.0053
          22   -0.0055    0.0016    0.0053   -0.0075    0.0067    0.3486   -0.0064   -0.0232
          23   -0.0112   -0.0009   -0.0033    0.0051   -0.0046   -0.2521    0.0070    0.0102
          24   -0.0061    0.0006    0.0017   -0.0023    0.0021    0.1209   -0.0038   -0.0039
          25   -0.0040   -0.0001   -0.0047    0.0033   -0.0055   -0.1193   -0.0036    0.0491
          26    0.0070   -0.0002   -0.0099    0.0066   -0.0117   -0.2303   -0.0087    0.1067
          27    0.0001    0.0002    0.0066   -0.0041    0.0072    0.1462    0.0052   -0.0674
          28   -0.0008    0.0227    0.0009   -0.0238   -0.0083   -0.0009   -0.0105   -0.0007
          29   -0.0014   -0.0242   -0.0006    0.0051    0.0020    0.0002    0.0035    0.0008
          30    0.0012   -0.0320   -0.0003   -0.0218   -0.0071   -0.0005   -0.0032   -0.0004
          31    0.0009   -0.2040   -0.0044    0.0254    0.0106    0.0013    0.0395    0.0065
          32   -0.0155    0.3763    0.0086   -0.0636   -0.0252   -0.0027   -0.0774   -0.0122
          33   -0.0001    0.1624    0.0038   -0.0414   -0.0156   -0.0014   -0.0378   -0.0056
          34   -0.0035    0.0173    0.0005   -0.0072   -0.0026   -0.0002   -0.0030    0.0001
          35    0.0011   -0.0530   -0.0006   -0.0326   -0.0107   -0.0006   -0.0078   -0.0016
          36    0.0007    0.2875    0.0028    0.2490    0.0821    0.0052    0.0752    0.0134
          37   -0.0005   -0.0993   -0.0072    0.2816    0.0971    0.0095    0.0592   -0.0027
          38    0.0037   -0.0216   -0.0009    0.0301    0.0104    0.0011    0.0115    0.0006
          39    0.0009   -0.0461   -0.0023    0.0683    0.0238    0.0025    0.0141   -0.0011
          40   -0.0049   -0.0001   -0.0000    0.0000   -0.0000   -0.0001   -0.0001   -0.0000
          41    0.0045   -0.0002   -0.0001    0.0001   -0.0001    0.0000    0.0001   -0.0001
          42   -0.0008    0.0001    0.0000   -0.0000    0.0001   -0.0001   -0.0001    0.0000
          43   -0.1475   -0.0000    0.0001   -0.0002    0.0005    0.0002    0.0003    0.0001
          44   -0.1458    0.0002    0.0002   -0.0001    0.0002   -0.0005   -0.0002    0.0002
          45    0.1053   -0.0001   -0.0001    0.0001   -0.0002    0.0001    0.0001   -0.0002
          46   -0.0418   -0.0001   -0.0000   -0.0001    0.0002    0.0003    0.0006    0.0003
          47    0.2450    0.0014    0.0002   -0.0002   -0.0001   -0.0000   -0.0009   -0.0003
          48   -0.0776   -0.0005   -0.0000    0.0001   -0.0000    0.0001    0.0002    0.0001
          49    0.0199    0.0000   -0.0011    0.0006   -0.0017   -0.0002   -0.0001   -0.0002
          50   -0.0283    0.0001   -0.0018    0.0003   -0.0007   -0.0000   -0.0000   -0.0002
          51    0.0080    0.0001   -0.0019   -0.0005    0.0016   -0.0006   -0.0000   -0.0003
          52    0.0912   -0.0000   -0.0000    0.0000   -0.0001    0.0000   -0.0000   -0.0001
          53    0.0867   -0.0001   -0.0001    0.0001   -0.0002    0.0001    0.0000   -0.0001
          54   -0.0645    0.0000    0.0000   -0.0000    0.0001   -0.0000   -0.0000    0.0001
          55    0.0301    0.0000    0.0005    0.0005    0.0004   -0.0003   -0.0010   -0.0018
          56   -0.0018   -0.0004    0.0003    0.0000    0.0006   -0.0000    0.0000   -0.0003
          57   -0.0050   -0.0001   -0.0002    0.0002   -0.0001    0.0000   -0.0005    0.0002
          58    0.0216    0.0000    0.0000   -0.0000   -0.0000   -0.0000   -0.0001   -0.0000
          59   -0.1480   -0.0007   -0.0001    0.0001    0.0000    0.0000    0.0004    0.0001
          60    0.0472    0.0003    0.0000   -0.0000   -0.0000   -0.0000   -0.0002   -0.0000
          61    0.0145    0.0012   -0.0051   -0.0060   -0.0052    0.0013    0.0077    0.0204
          62    0.0115    0.0009   -0.0016   -0.0025   -0.0020    0.0005    0.0029    0.0075
          63   -0.0141    0.0005    0.0005    0.0006    0.0000   -0.0001   -0.0005   -0.0012
          64   -0.0033   -0.0001   -0.0129    0.0081   -0.0271    0.0019   -0.0003   -0.0006
          65    0.0036    0.0007   -0.0362    0.0017   -0.0069    0.0011    0.0001   -0.0000
          66   -0.0030    0.0009   -0.0265   -0.0069    0.0220   -0.0005    0.0002   -0.0004
          67   -0.0102   -0.0012    0.1333   -0.0344    0.1179   -0.0088   -0.0001   -0.0026
          68    0.0090   -0.0016    0.2328   -0.0680    0.2319   -0.0167    0.0001   -0.0037
          69   -0.0020    0.0012   -0.1089    0.0228   -0.0786    0.0060   -0.0002    0.0013
          70   -0.0053   -0.0039    0.1617    0.0132   -0.0388   -0.0015    0.0000    0.0037
          71    0.0016   -0.0042    0.1890    0.0120   -0.0343   -0.0025    0.0003    0.0051
          72    0.0002   -0.0085    0.3878    0.0181   -0.0493   -0.0059    0.0002    0.0093
          73    0.0007    0.0071   -0.1297   -0.0804    0.2592   -0.0130    0.0031    0.0064
          74    0.0039   -0.0025    0.0304    0.0340   -0.1102    0.0059   -0.0012   -0.0023
          75   -0.0082   -0.0038    0.0588    0.0466   -0.1505    0.0078   -0.0022   -0.0047


   Root No.      65        66        67        68        69

                65 A      66 A      67 A      68 A      69 A   

                2755.8    2759.7    2770.3    2774.2    2776.4
  
           1    0.0013   -0.0064    0.0016   -0.0043   -0.0024
           2   -0.0011    0.0018    0.0014   -0.0034   -0.0015
           3    0.0002    0.0003   -0.0011    0.0013    0.0005
           4   -0.0108    0.0686   -0.0166    0.0379    0.0195
           5    0.0004   -0.0038   -0.0003    0.0006    0.0001
           6   -0.0002   -0.0000    0.0007   -0.0007   -0.0003
           7    0.0079   -0.0254    0.0001   -0.0039   -0.0038
           8    0.0012    0.0018   -0.0006    0.0010    0.0004
           9   -0.0030    0.0079    0.0000    0.0010    0.0011
          10   -0.1037    0.3343    0.0005    0.0483    0.0483
          11    0.0023   -0.0057    0.0006   -0.0015   -0.0011
          12    0.0342   -0.1103   -0.0001   -0.0158   -0.0158
          13   -0.0037   -0.0104   -0.0006   -0.0010   -0.0013
          14    0.0019    0.0096    0.0014    0.0004    0.0017
          15    0.0007    0.0009   -0.0002    0.0003   -0.0001
          16    0.0294    0.1009    0.0119    0.0059    0.0159
          17   -0.0389   -0.1423   -0.0166   -0.0085   -0.0225
          18    0.0010    0.0065    0.0006    0.0003    0.0011
          19   -0.0260   -0.0052   -0.0012    0.0002    0.0009
          20   -0.0103    0.0013    0.0002    0.0000    0.0012
          21    0.0094    0.0000    0.0007   -0.0003   -0.0004
          22    0.2003    0.0543    0.0080   -0.0003   -0.0057
          23   -0.1637   -0.0412   -0.0068    0.0005    0.0049
          24    0.0814    0.0196    0.0028   -0.0001   -0.0028
          25    0.1269    0.0140    0.0034    0.0001   -0.0074
          26    0.3025    0.0358    0.0084   -0.0002   -0.0170
          27   -0.1870   -0.0221   -0.0055    0.0003    0.0102
          28   -0.0009    0.0010    0.0023   -0.0078   -0.0043
[...]
 TRANSITION DIPOLE   0.4661         C 16 -- C 19         +10.5% ( 48.4%)     47.6%
 TRAVEL (Ang.)       0.3743         C 19 -- H 21          +9.2% ( 45.2%)     42.2%
 REDUCED MASS        0.4688         C  1 -- C 19          +8.2% ( 42.7%)      0.0%
 EFFECTIVE MASS      6.1041
 FORCE CONSTANT      0.2911

 VIBRATION         33   33A           ATOM PAIR      ENERGY CONTRIBUTION    RADIAL
 FREQUENCY          1037.11         C  7 -- H  9         +18.1% ( 55.6%)     11.5%
 TRANSITION DIPOLE   0.5860         C  7 -- H  8         +13.6% ( 48.2%)      8.0%
 TRAVEL (Ang.)       0.5079         C  3 -- H  4          +7.4% ( 35.6%)      1.1%
 REDUCED MASS        0.2521         C  5 -- H  6          +6.4% ( 33.0%)      7.0%
 EFFECTIVE MASS      4.2511
 FORCE CONSTANT      0.1597

 VIBRATION         34   34A           ATOM PAIR      ENERGY CONTRIBUTION    RADIAL
 FREQUENCY          1052.57         C 19 -- H 21         +13.8% ( 53.9%)     35.2%
 TRANSITION DIPOLE   0.8645         O 14 -- C 15         +12.6% ( 51.5%)     83.0%
 TRAVEL (Ang.)       0.2843         C 22 -- H 23         +10.8% ( 47.7%)     32.8%
 REDUCED MASS        0.7927         C 16 -- C 19          +9.3% ( 44.2%)     97.9%
 EFFECTIVE MASS      7.4351
 FORCE CONSTANT      0.5174

 VIBRATION         35   35A           ATOM PAIR      ENERGY CONTRIBUTION    RADIAL
 FREQUENCY          1056.99         C 22 -- H 24         +21.0% ( 57.5%)     19.3%
 TRANSITION DIPOLE   1.1062         C 22 -- H 25         +13.5% ( 46.0%)      6.9%
 TRAVEL (Ang.)       0.4529         C  7 -- H  8         +11.5% ( 42.5%)      4.9%
 REDUCED MASS        0.3110         C 22 -- H 23          +9.7% ( 39.0%)      1.2%
 EFFECTIVE MASS      3.8774
 FORCE CONSTANT      0.2047

 VIBRATION         36   36A           ATOM PAIR      ENERGY CONTRIBUTION    RADIAL
 FREQUENCY          1086.93         C 10 -- H 12         +18.8% ( 51.5%)     23.3%
 TRANSITION DIPOLE   0.2849         C  1 -- H  2         +16.3% ( 47.9%)      0.0%
 TRAVEL (Ang.)       0.3553         C 10 -- H 11         +10.6% ( 38.7%)      6.2%
 REDUCED MASS        0.4916         C  1 -- C 10          +9.9% ( 37.5%)      5.5%
 EFFECTIVE MASS      4.2677
 FORCE CONSTANT      0.3422

 VIBRATION         37   37A           ATOM PAIR      ENERGY CONTRIBUTION    RADIAL
 FREQUENCY          1134.33         C  7 -- H  8         +26.6% ( 55.2%)      0.5%
 TRANSITION DIPOLE   0.5496         C  7 -- H  9         +15.5% ( 42.2%)      0.3%
 TRAVEL (Ang.)       0.4000         C 22 -- H 24          +8.9% ( 32.0%)     11.7%
 REDUCED MASS        0.3714         C 22 -- H 25          +6.8% ( 27.9%)     18.0%
 EFFECTIVE MASS      3.5093
 FORCE CONSTANT      0.2816

 VIBRATION         38   38A           ATOM PAIR      ENERGY CONTRIBUTION    RADIAL
 FREQUENCY          1170.41         C  1 -- C 10         +20.3% ( 68.5%)     72.5%
 TRANSITION DIPOLE   0.4672         C  1 -- C  3         +14.4% ( 57.7%)      6.5%
 TRAVEL (Ang.)       0.2095         C  3 -- H  4         +11.1% ( 50.6%)     26.6%
 REDUCED MASS        1.3121         C 10 -- H 13          +8.5% ( 44.5%)     85.8%
 EFFECTIVE MASS      8.0687
 FORCE CONSTANT      1.0590

 VIBRATION         39   39A           ATOM PAIR      ENERGY CONTRIBUTION    RADIAL
 FREQUENCY          1221.89         C 19 -- H 21         +34.3% ( 85.4%)      0.1%
 TRANSITION DIPOLE   0.6619         C 16 -- C 19         +12.0% ( 50.5%)     76.5%
 TRAVEL (Ang.)       0.2030         C 17 -- C 19         +11.1% ( 48.6%)     52.6%
 REDUCED MASS        1.3393         C  1 -- C 19         +11.1% ( 48.4%)      0.1%
 EFFECTIVE MASS      6.3964         C 17 -- C 22         +10.2% ( 46.6%)     99.2%
 FORCE CONSTANT      1.1781

 VIBRATION         40   40A           ATOM PAIR      ENERGY CONTRIBUTION    RADIAL
 FREQUENCY          1227.01         C 16 -- C 19         +16.9% ( 64.5%)     67.3%
 TRANSITION DIPOLE   3.6351         C 15 -- C 16         +15.8% ( 62.3%)     90.5%
 TRAVEL (Ang.)       0.1441         O 14 -- C 16         +14.9% ( 60.5%)     47.2%
 REDUCED MASS        2.6447         O 14 -- C 15         +11.5% ( 53.2%)     69.9%
 EFFECTIVE MASS     12.3340
 FORCE CONSTANT      2.3460

 VIBRATION         41   41A           ATOM PAIR      ENERGY CONTRIBUTION    RADIAL
 FREQUENCY          1261.82         C 10 -- H 12         +41.1% ( 56.2%)      0.3%
 TRANSITION DIPOLE   0.6176         C 10 -- H 11         +26.4% ( 45.1%)      5.6%
 TRAVEL (Ang.)       0.3999         C 10 -- H 13         +18.1% ( 37.2%)      6.9%
 REDUCED MASS        0.3342         C  1 -- C 10          +4.5% ( 18.6%)     49.1%
 EFFECTIVE MASS      1.5592
 FORCE CONSTANT      0.3135

 VIBRATION         42   42A           ATOM PAIR      ENERGY CONTRIBUTION    RADIAL
 FREQUENCY          1268.94         C 22 -- H 24         +40.4% ( 58.8%)      0.1%
 TRANSITION DIPOLE   0.3575         C 22 -- H 25         +19.2% ( 40.6%)      9.9%
 TRAVEL (Ang.)       0.3998         C 22 -- H 23         +15.7% ( 36.7%)     10.5%
 REDUCED MASS        0.3325         C 17 -- C 22          +6.8% ( 24.1%)     12.5%
 EFFECTIVE MASS      1.9927
 FORCE CONSTANT      0.3154

 VIBRATION         43   43A           ATOM PAIR      ENERGY CONTRIBUTION    RADIAL
 FREQUENCY          1273.03         C 10 -- H 11         +21.4% ( 43.6%)      0.6%
 TRANSITION DIPOLE   0.7211         C 10 -- H 13         +16.2% ( 37.9%)      6.6%
 TRAVEL (Ang.)       0.5674         C 22 -- H 23         +12.2% ( 32.9%)      0.0%
 REDUCED MASS        0.1645         C  1 -- H  2          +9.0% ( 28.3%)     11.8%
 EFFECTIVE MASS      2.0194
 FORCE CONSTANT      0.1571

 VIBRATION         44   44A           ATOM PAIR      ENERGY CONTRIBUTION    RADIAL
 FREQUENCY          1276.00         C 22 -- H 25         +24.4% ( 44.1%)      1.0%
 TRANSITION DIPOLE   0.2852         C 22 -- H 23         +22.0% ( 41.9%)      1.5%
 TRAVEL (Ang.)       0.5233         C 10 -- H 13         +15.5% ( 35.2%)      0.0%
 REDUCED MASS        0.1930         C 10 -- H 11         +10.9% ( 29.4%)      1.1%
 EFFECTIVE MASS      1.6903
 FORCE CONSTANT      0.1852

 VIBRATION         45   45A           ATOM PAIR      ENERGY CONTRIBUTION    RADIAL
 FREQUENCY          1277.48         C  1 -- C 10         +14.0% ( 42.5%)     86.7%
 TRANSITION DIPOLE   0.4953         C  1 -- H  2         +13.0% ( 41.0%)     43.7%
 TRAVEL (Ang.)       0.4142         C  3 -- H  4         +12.3% ( 39.8%)      4.1%
 REDUCED MASS        0.3077         C  5 -- H  6         +11.9% ( 39.3%)      7.9%
 EFFECTIVE MASS      3.7228
 FORCE CONSTANT      0.2958

 VIBRATION         46   46A           ATOM PAIR      ENERGY CONTRIBUTION    RADIAL
 FREQUENCY          1297.30         C 17 -- C 22         +19.4% ( 62.8%)     54.5%
 TRANSITION DIPOLE   0.7060         C 15 -- C 17         +17.9% ( 60.3%)     93.0%
 TRAVEL (Ang.)       0.1517         C 17 -- C 19         +16.3% ( 57.5%)     14.6%
 REDUCED MASS        2.2598         C  7 -- C 17         +13.8% ( 52.9%)      0.4%
 EFFECTIVE MASS      7.7252
 FORCE CONSTANT      2.2408

 VIBRATION         47   47A           ATOM PAIR      ENERGY CONTRIBUTION    RADIAL
 FREQUENCY          1302.73         C  3 -- H  4         +19.6% ( 49.5%)      2.8%
 TRANSITION DIPOLE   0.1706         C  5 -- H  6         +17.0% ( 46.0%)     11.7%
 TRAVEL (Ang.)       0.4368         C  1 -- H  2         +17.0% ( 46.0%)      9.5%
 REDUCED MASS        0.2713         C  7 -- H  8          +8.7% ( 33.0%)     25.7%
 EFFECTIVE MASS      3.2489
 FORCE CONSTANT      0.2713

 VIBRATION         48   48A           ATOM PAIR      ENERGY CONTRIBUTION    RADIAL
 FREQUENCY          1325.91         C  1 -- H  2         +35.9% ( 69.2%)      0.3%
 TRANSITION DIPOLE   0.1379         C  5 -- H  6         +24.6% ( 57.3%)      0.0%
 TRAVEL (Ang.)       0.3469         C  1 -- C 10          +8.2% ( 33.0%)     78.3%
 REDUCED MASS        0.4225         C  1 -- C 19          +5.7% ( 27.6%)      0.2%
 EFFECTIVE MASS      2.7862
 FORCE CONSTANT      0.4376

 VIBRATION         49   49A           ATOM PAIR      ENERGY CONTRIBUTION    RADIAL
 FREQUENCY          1367.21         C  7 -- H  8         +25.0% ( 50.6%)      0.0%
 TRANSITION DIPOLE   0.3962         C  3 -- H  4         +23.9% ( 49.4%)      2.8%
 TRAVEL (Ang.)       0.4030         C  7 -- H  9         +19.0% ( 44.1%)      1.1%
 REDUCED MASS        0.3037         C  3 -- C  5          +7.7% ( 28.1%)     71.9%
 EFFECTIVE MASS      2.3382
 FORCE CONSTANT      0.3344

 VIBRATION         50   50A           ATOM PAIR      ENERGY CONTRIBUTION    RADIAL
 FREQUENCY          1384.69         C 22 -- H 25         +29.2% ( 55.7%)      1.3%
 TRANSITION DIPOLE   1.0631         C 22 -- H 23         +27.9% ( 54.4%)      1.9%
 TRAVEL (Ang.)       0.3255         C 22 -- H 24         +26.4% ( 53.0%)      1.5%
 REDUCED MASS        0.4596         C 17 -- C 22          +8.1% ( 29.4%)     94.0%
 EFFECTIVE MASS      2.3991
 FORCE CONSTANT      0.5193

 VIBRATION         51   51A           ATOM PAIR      ENERGY CONTRIBUTION    RADIAL
 FREQUENCY          1387.34         C 10 -- H 13         +30.1% ( 57.4%)      1.9%
 TRANSITION DIPOLE   0.9413         C 10 -- H 11         +29.4% ( 56.7%)      1.7%
 TRAVEL (Ang.)       0.3149         C 10 -- H 12         +21.9% ( 48.9%)      1.5%
 REDUCED MASS        0.4901         C  1 -- C 10          +8.4% ( 30.2%)     98.4%
 EFFECTIVE MASS      2.5529
 FORCE CONSTANT      0.5557

 VIBRATION         52   52A           ATOM PAIR      ENERGY CONTRIBUTION    RADIAL
 FREQUENCY          1435.65         C  3 -- C  5         +15.7% ( 56.6%)     97.8%
 TRANSITION DIPOLE   0.4689         C  5 -- C  7         +14.5% ( 54.4%)     48.0%
 TRAVEL (Ang.)       0.1862         C  7 -- H  9         +12.5% ( 50.5%)      1.7%
 REDUCED MASS        1.3546         C  1 -- C  3         +10.2% ( 45.7%)     44.0%
 EFFECTIVE MASS      8.4439
 FORCE CONSTANT      1.6450

 VIBRATION         53   53A           ATOM PAIR      ENERGY CONTRIBUTION    RADIAL
 FREQUENCY          1514.18         C 17 -- C 19         +17.3% ( 67.8%)     91.8%
 TRANSITION DIPOLE   1.6531         C 17 -- C 22         +11.3% ( 54.7%)     84.1%
 TRAVEL (Ang.)       0.1427         C  3 -- C  5         +10.7% ( 53.2%)     98.8%
 REDUCED MASS        2.1859         C  7 -- C 17         +10.3% ( 52.4%)      7.9%
 EFFECTIVE MASS     10.8708
 FORCE CONSTANT      2.9528

 VIBRATION         54   54A           ATOM PAIR      ENERGY CONTRIBUTION    RADIAL
 FREQUENCY          1660.43         C  5 -- C  7         +21.4% ( 70.1%)     93.6%
 TRANSITION DIPOLE   1.4254         C  3 -- C  5         +13.2% ( 55.1%)     69.4%
 TRAVEL (Ang.)       0.1168         C 17 -- C 19         +12.8% ( 54.3%)     98.5%
 REDUCED MASS        2.9752         C  7 -- C 17         +10.6% ( 49.3%)      2.2%
 EFFECTIVE MASS     11.6677         C  5 -- H  6         +10.5% ( 49.0%)      1.4%
 FORCE CONSTANT      4.8330

 VIBRATION         55   55A           ATOM PAIR      ENERGY CONTRIBUTION    RADIAL
 FREQUENCY          1675.97         C  1 -- C  3         +29.5% ( 82.5%)     96.9%
 TRANSITION DIPOLE   1.8856         C  3 -- C  5         +11.9% ( 52.5%)     20.2%
 TRAVEL (Ang.)       0.1080         C  1 -- C 19         +10.6% ( 49.5%)      1.7%
 REDUCED MASS        3.4478         C  3 -- H  4         +10.3% ( 48.8%)      6.4%
 EFFECTIVE MASS     11.4107
 FORCE CONSTANT      5.7060

 VIBRATION         56   56A           ATOM PAIR      ENERGY CONTRIBUTION    RADIAL
 FREQUENCY          1881.74         C 15 -- O 18         +24.7% ( 75.3%)     99.9%
 TRANSITION DIPOLE   7.0852         C 16 -- O 20         +19.6% ( 67.1%)     99.4%
 TRAVEL (Ang.)       0.1017         C 15 -- C 16         +17.5% ( 63.5%)      2.2%
 REDUCED MASS        3.4639         C 15 -- C 17         +10.4% ( 49.0%)     49.9%
 EFFECTIVE MASS     13.4381         O 14 -- C 15         +10.3% ( 48.6%)     20.6%
 FORCE CONSTANT      7.2266

 VIBRATION         57   57A           ATOM PAIR      ENERGY CONTRIBUTION    RADIAL
 FREQUENCY          1947.05         C 16 -- O 20         +22.8% ( 72.5%)    100.0%
 TRANSITION DIPOLE   3.0941         C 15 -- C 16         +20.2% ( 68.2%)     99.5%
 TRAVEL (Ang.)       0.0992         C 15 -- O 18         +18.2% ( 64.8%)    100.0%
 REDUCED MASS        3.5202         C 16 -- C 19         +10.9% ( 50.0%)     61.6%
 EFFECTIVE MASS     13.2398         O 14 -- C 16         +10.5% ( 49.2%)     22.0%
 FORCE CONSTANT      7.8627

 VIBRATION         58   58A           ATOM PAIR      ENERGY CONTRIBUTION    RADIAL
 FREQUENCY          2649.39         C 10 -- H 11         +65.7% ( 83.6%)     99.5%
 TRANSITION DIPOLE   0.6937         C 10 -- H 12         +27.7% ( 54.4%)     93.3%
 TRAVEL (Ang.)       0.2201         C 10 -- H 13          +4.7% ( 22.3%)     56.2%
 REDUCED MASS        0.5254         C  1 -- H  2          +0.9% ( 10.0%)     99.0%
 EFFECTIVE MASS      1.4409
 FORCE CONSTANT      2.1727

 VIBRATION         59   59A           ATOM PAIR      ENERGY CONTRIBUTION    RADIAL
 FREQUENCY          2657.10         C 22 -- H 24         +65.3% ( 83.4%)     99.5%
 TRANSITION DIPOLE   0.6595         C 22 -- H 23         +26.5% ( 53.1%)     92.5%
 TRAVEL (Ang.)       0.2217         C 22 -- H 25          +7.2% ( 27.7%)     68.2%
 REDUCED MASS        0.5164         C 17 -- C 22          +0.9% (  9.6%)      0.1%
 EFFECTIVE MASS      1.4388
 FORCE CONSTANT      2.1483

 VIBRATION         60   60A           ATOM PAIR      ENERGY CONTRIBUTION    RADIAL
 FREQUENCY          2667.66         C 10 -- H 13         +47.2% ( 70.9%)     98.8%
 TRANSITION DIPOLE   0.5773         C 10 -- H 12         +34.6% ( 60.7%)     96.2%
 TRAVEL (Ang.)       0.2646         C 22 -- H 25          +5.4% ( 24.0%)     99.1%
 REDUCED MASS        0.3610         C 10 -- H 11          +4.0% ( 20.6%)     54.0%
 EFFECTIVE MASS      1.4364
 FORCE CONSTANT      1.5136

 VIBRATION         61   61A           ATOM PAIR      ENERGY CONTRIBUTION    RADIAL
 FREQUENCY          2668.13         C 22 -- H 25         +50.2% ( 73.1%)     98.9%
 TRANSITION DIPOLE   0.6115         C 22 -- H 23         +36.2% ( 62.1%)     96.4%
 TRAVEL (Ang.)       0.2508         C 10 -- H 13          +5.0% ( 23.1%)     98.9%
 REDUCED MASS        0.4017         C 10 -- H 12          +3.3% ( 18.9%)     95.6%
 EFFECTIVE MASS      1.4473
 FORCE CONSTANT      1.6849

 VIBRATION         62   62A           ATOM PAIR      ENERGY CONTRIBUTION    RADIAL
 FREQUENCY          2686.33         C  7 -- H  8         +63.2% ( 82.2%)     99.4%
 TRANSITION DIPOLE   0.4455         C  7 -- H  9         +30.0% ( 56.6%)     96.1%
 TRAVEL (Ang.)       0.2205         C  5 -- H  6          +4.5% ( 22.0%)     99.9%
 REDUCED MASS        0.5164         C  5 -- C  7          +1.1% ( 10.6%)      3.8%
 EFFECTIVE MASS      1.4752
 FORCE CONSTANT      2.1956

 VIBRATION         63   63A           ATOM PAIR      ENERGY CONTRIBUTION    RADIAL
 FREQUENCY          2705.49         C  1 -- H  2         +86.0% ( 94.2%)     99.9%
 TRANSITION DIPOLE   0.5922         C  3 -- H  4          +5.0% ( 22.8%)     99.9%
 TRAVEL (Ang.)       0.1838         C 10 -- H 11          +2.7% ( 16.8%)     94.6%
 REDUCED MASS        0.7377         C 10 -- H 12          +1.7% ( 13.4%)     88.5%
 EFFECTIVE MASS      1.3772
 FORCE CONSTANT      3.1813

 VIBRATION         64   64A           ATOM PAIR      ENERGY CONTRIBUTION    RADIAL
 FREQUENCY          2745.46         C  5 -- H  6         +74.2% ( 87.0%)    100.0%
 TRANSITION DIPOLE   0.6949         C  3 -- H  4         +14.6% ( 38.6%)     99.9%
 TRAVEL (Ang.)       0.2092         C  7 -- H  9          +7.1% ( 26.9%)     99.8%
 REDUCED MASS        0.5611         C  1 -- H  2          +1.3% ( 11.4%)     99.0%
 EFFECTIVE MASS      1.3790
 FORCE CONSTANT      2.4918

 VIBRATION         65   65A           ATOM PAIR      ENERGY CONTRIBUTION    RADIAL
 FREQUENCY          2755.81         C  7 -- H  9         +60.5% ( 77.2%)     97.5%
 TRANSITION DIPOLE   0.6837         C  7 -- H  8         +30.2% ( 54.6%)     91.5%
 TRAVEL (Ang.)       0.2316         C  3 -- H  4          +5.3% ( 22.8%)     99.9%
 REDUCED MASS        0.4562         C  5 -- H  6          +1.0% ( 10.2%)     98.0%
 EFFECTIVE MASS      1.2940
 FORCE CONSTANT      2.0412

 VIBRATION         66   66A           ATOM PAIR      ENERGY CONTRIBUTION    RADIAL
 FREQUENCY          2759.67         C  3 -- H  4         +69.4% ( 83.7%)    100.0%
 TRANSITION DIPOLE   0.9948         C  5 -- H  6         +17.1% ( 41.5%)     99.7%
 TRAVEL (Ang.)       0.2230         C  7 -- H  8          +2.7% ( 16.5%)     98.2%
 REDUCED MASS        0.4915         C  1 -- H  2          +2.6% ( 16.3%)     98.8%
 EFFECTIVE MASS      1.3743
 FORCE CONSTANT      2.2055

 VIBRATION         67   67A           ATOM PAIR      ENERGY CONTRIBUTION    RADIAL
 FREQUENCY          2770.32         C 19 -- H 21         +80.9% ( 90.6%)    100.0%
 TRANSITION DIPOLE   0.7133         C 22 -- H 23          +4.0% ( 20.2%)     95.8%
 TRAVEL (Ang.)       0.1959         C 22 -- H 25          +4.0% ( 20.1%)     95.8%
 REDUCED MASS        0.6343         C 22 -- H 24          +3.1% ( 17.9%)     94.3%
 EFFECTIVE MASS      1.3655
 FORCE CONSTANT      2.8683

 VIBRATION         68   68A           ATOM PAIR      ENERGY CONTRIBUTION    RADIAL
 FREQUENCY          2774.17         C 10 -- H 13         +28.6% ( 51.5%)     96.8%
 TRANSITION DIPOLE   0.7173         C 10 -- H 12         +21.1% ( 44.2%)     94.7%
 TRAVEL (Ang.)       0.3662         C 10 -- H 11         +16.5% ( 39.1%)     93.1%
 REDUCED MASS        0.1812         C 22 -- H 25         +10.9% ( 31.8%)     96.0%
 EFFECTIVE MASS      1.1602
 FORCE CONSTANT      0.8218

 VIBRATION         69   69A           ATOM PAIR      ENERGY CONTRIBUTION    RADIAL
 FREQUENCY          2776.38         C 22 -- H 25         +20.6% ( 44.1%)     95.9%
 TRANSITION DIPOLE   0.7922         C 22 -- H 23         +18.0% ( 41.2%)     95.0%
 TRAVEL (Ang.)       0.4020         C 19 -- H 21         +17.6% ( 40.8%)    100.0%
 REDUCED MASS        0.1503         C 22 -- H 24         +16.9% ( 40.0%)     94.6%
 EFFECTIVE MASS      1.2079
 FORCE CONSTANT      0.6826

           FORCE CONSTANT IN CARTESIAN COORDINATES (Millidynes/A)

    ATOM   CHEMICAL       X               Y               Z
   NUMBER   SYMBOL  FORCE CONSTANT  FORCE CONSTANT  FORCE CONSTANT

      1       C        8.282584       11.155414        2.075486
      2       H        4.097569        0.917585        0.572237
      3       C        8.600879       11.014584        3.802303
      4       H        3.876444        0.929013        0.789846
      5       C        9.766961        9.011396        4.755883
      6       H        1.954187        3.065177        0.534724
      7       C       10.315161        5.208360        3.429673
      8       H        2.725454        1.783609        0.942009
      9       H        1.172977        2.854918        1.400528
     10       C        6.675593        7.316029        6.073612
     11       H        1.341857        2.938914        1.071737
     12       H        0.562559        0.724052        4.001811
     13       H        3.843925        0.765686        0.812791
     14       O        5.791613        5.806839        1.597371
     15       C       10.642897        9.592061        5.618063
     16       C        6.260925       15.863002        4.065321
     17       C        7.750940        8.717362        4.984319
     18       O        6.486836        6.256262        3.386115
     19       C        9.023646        9.286063        2.143515
     20       O        1.196955       13.146141        1.766915
     21       H        3.851695        1.158925        0.520933
     22       C        6.722490        6.854625        6.502136
     23       H        1.430118        3.008735        0.957689
     24       H        1.014107        1.306684        3.003284
     25       H        2.940207        0.969289        1.491356

 **********************
 *                    *
 * JOB ENDED NORMALLY *
 *                    *
 **********************



 TOTAL JOB TIME:             2.16 SECONDS

 == MOPAC DONE ==
