 *******************************************************************************
 ** Site#: 36969        For non-commercial use only    Version 21.051W 64BITS **
 *******************************************************************************
 ** Cite this program as: MOPAC2016, Version: 21.051W, James J. P. Stewart,   **
 ** Stewart Computational Chemistry, web: HTTP://OpenMOPAC.net. Days left: 295**
 *******************************************************************************
 **                                                                           **
 **                                MOPAC2016                                  **
 **                                                                           **
 *******************************************************************************

                              PM7 CALCULATION RESULTS

 *******************************************************************************
 *  CALCULATION DONE:                                Sat May  1 14:35:21 2021  *
 *  PM7        - The PM7 Hamiltonian to be used
 *  FORCE      - FORCE CALCULATION SPECIFIED
 *  T=         - A TIME OF 172800.0 SECONDS REQUESTED
 *  DUMP=N     - RESTART FILE WRITTEN EVERY 7200.0 SECONDS REQUESTED
 *******************************************************************************
PM7 FORCE
 TS_3_FREQ

   ATOM   CHEMICAL          X               Y               Z
  NUMBER   SYMBOL      (ANGSTROMS)     (ANGSTROMS)     (ANGSTROMS)
 
     1       C         -0.81911130  *  -0.46986846  *  -1.86008166  *
     2       H          0.27645285  *  -0.44936822  *  -1.87597925  *
     3       C         -1.55058284  *   0.69941304  *  -1.83710694  *
     4       H         -2.59315171  *   0.69418253  *  -2.15591873  *
     5       C         -1.03526423  *   1.86960320  *  -1.26060378  *
     6       H         -1.69577737  *   2.73710521  *  -1.17698218  *
     7       C          0.20529078  *   1.89459552  *  -0.65072776  *
     8       H          1.02893620  *   1.28674645  *  -1.01346995  *
     9       H          0.54645226  *   2.77116585  *  -0.11180980  *
    10       C         -1.43581348  *  -1.75964692  *  -2.26677224  *
    11       H         -0.88777297  *  -2.62809262  *  -1.85817541  *
    12       H         -2.48081440  *  -1.86288901  *  -1.94505693  *
    13       H         -1.42362874  *  -1.87264576  *  -3.36366042  *
    14       O          1.67003851  *  -0.78876108  *   0.85527181  *
    15       C          1.24774773  *   0.46879708  *   1.28130083  *
    16       C          0.56404776  *  -1.50511842  *   0.33598810  *
    17       C         -0.21868228  *   0.60060200  *   0.93446369  *
    18       O          2.00808310  *   1.21366776  *   1.81602132  *
    19       C         -0.60969079  *  -0.62175877  *   0.38558515  *
    20       O          0.73748020  *  -2.62451587  *  -0.03642786  *
    21       H         -1.60976781  *  -1.01419541  *   0.36313044  *
    22       C         -1.07528188  *   1.48455926  *   1.76007066  *
    23       H         -1.47008783  *   0.94349049  *   2.63668159  *
    24       H         -0.53399835  *   2.36393685  *   2.14432152  *
    25       H         -1.94891691  *   1.85910503  *   1.20970165  *
 


          CARTESIAN COORDINATES 

    NO.       ATOM           X           Y           Z

     1         C         -0.8191     -0.4699     -1.8601
     2         H          0.2765     -0.4494     -1.8760
     3         C         -1.5506      0.6994     -1.8371
     4         H         -2.5932      0.6942     -2.1559
     5         C         -1.0353      1.8696     -1.2606
     6         H         -1.6958      2.7371     -1.1770
     7         C          0.2053      1.8946     -0.6507
     8         H          1.0289      1.2867     -1.0135
     9         H          0.5465      2.7712     -0.1118
    10         C         -1.4358     -1.7596     -2.2668
    11         H         -0.8878     -2.6281     -1.8582
    12         H         -2.4808     -1.8629     -1.9451
    13         H         -1.4236     -1.8726     -3.3637
    14         O          1.6700     -0.7888      0.8553
    15         C          1.2477      0.4688      1.2813
    16         C          0.5640     -1.5051      0.3360
    17         C         -0.2187      0.6006      0.9345
    18         O          2.0081      1.2137      1.8160
    19         C         -0.6097     -0.6218      0.3856
    20         O          0.7375     -2.6245     -0.0364
    21         H         -1.6098     -1.0142      0.3631
    22         C         -1.0753      1.4846      1.7601
    23         H         -1.4701      0.9435      2.6367
    24         H         -0.5340      2.3639      2.1443
    25         H         -1.9489      1.8591      1.2097

 General Reference for PM7:
 "Optimization of Parameters for Semiempirical Methods VI: More Modifications to the 
 NDDO Approximations and Re-optimization of Parameters", J. J. P. Stewart, J. Mol. Mod., 1:32, 19 (2013)
 https://link.springer.com/article/10.1007/s00894-012-1667-x

           Empirical Formula: C10 H12 O3  =    25 atoms



      MOLECULAR POINT GROUP   :   C1  


      RHF CALCULATION, NO. OF DOUBLY OCCUPIED LEVELS = 35



          HEAT OF FORMATION =     -60.755358 KCALS/MOLE


          CARTESIAN COORDINATE DERIVATIVES

   NUMBER  ATOM         X            Y            Z

     1       C      0.200501    -0.357788    -0.524162
     2       H      0.272434     0.000780    -0.464783
     3       C     -0.080418     1.020381    -0.213107
     4       H      0.003622     0.022358    -0.040234
     5       C     -0.099769    -0.567018    -0.354771
     6       H     -0.299366     0.174644     0.008758
     7       C     -0.195545    -0.487151     0.001492
     8       H      0.070626     0.116093    -0.516638
     9       H     -0.151868    -0.198333     0.501182
    10       C      0.104052     0.237334     0.035950
    11       H     -0.097432     0.047865    -0.052974
    12       H     -0.017424    -0.331014     0.307648
    13       H     -0.081611     0.020696    -0.096035
    14       O      0.182945     0.041786     0.031176
    15       C      0.783439     0.617069     0.177319
    16       C     -0.189965    -0.403135    -0.081943
    17       C     -0.139823    -0.409863    -0.100192
    18       O     -0.254305    -0.380475     0.134501
    19       C     -0.163283     0.157738     0.728207
    20       O     -0.024757     0.545947     0.202782
    21       H     -0.071125     0.151420     0.467568
    22       C     -0.020402    -0.251103     0.253863
    23       H     -0.413230     0.056076    -0.719155
    24       H     -0.487299     0.110902    -0.038460
    25       H      1.169997     0.064786     0.352006
 


          GRADIENT NORM =   3.00206


          TIME FOR SCF CALCULATION =    0.01

          TIME FOR DERIVATIVES     =    0.01

          MOLECULAR WEIGHT =  180.20



          ROTATIONAL CONSTANTS IN CM(-1)

          A =    0.03542111   B =    0.02772816   C =    0.01874760



           PRINCIPAL MOMENTS OF INERTIA IN UNITS OF 10**(-40)*GRAM-CM**2

          A =      790.2851   B =     1009.5433   C =     1493.1387


          ORIENTATION OF MOLECULE IN FORCE CALCULATION

    NO.       ATOM         X         Y         Z

     1          C      -0.8065   -0.4833   -1.8490
     2          H       0.2894   -0.4833   -1.8490
     3          C      -1.5162    0.6995   -1.8490
     4          H      -2.5540    0.7102   -2.1831
     5          C      -0.9875    1.8661   -1.2773
     6          H      -1.6329    2.7465   -1.2125
     7          C       0.2443    1.8746   -0.6495
     8          H       1.0616    1.2477   -0.9938
     9          H       0.5939    2.7504   -0.1148
    10          C      -1.4413   -1.7657   -2.2513
    11          H      -0.9156   -2.6397   -1.8256
    12          H      -2.4926   -1.8461   -1.9439
    13          H      -1.4153   -1.8907   -3.3466
    14          O       1.6366   -0.8192    0.9058
    15          C       1.2317    0.4505    1.3124
    16          C       0.5250   -1.5204    0.3778
    17          C      -0.2268    0.6057    0.9427
    18          O       1.9980    1.1868    1.8504
    19          C      -0.6326   -0.6150    0.4009
    20          O       0.6829   -2.6468    0.0197
    21          H      -1.6394   -0.9890    0.3679
    22          C      -1.0786    1.5142    1.7463
    23          H      -1.4961    0.9900    2.6226
    24          H      -0.5266    2.3875    2.1293
    25          H      -1.9370    1.8990    1.1793


    FIRST DERIVATIVES WILL BE USED IN THE CALCULATION OF SECOND DERIVATIVES

          ESTIMATED TIME TO COMPLETE CALCULATION =        2.93 SECONDS

    FOR POINT-GROUP C1   THERE ARE   1 UNIQUE SYMMETRY FUNCTIONS.

 STEP:   1 TIME =     0.02 SECS, INTEGRAL =      0.02 TIME LEFT: 172799.96
 STEP:   2 TIME =     0.02 SECS, INTEGRAL =      0.04 TIME LEFT: 172799.95
 STEP:   3 TIME =     0.02 SECS, INTEGRAL =      0.05 TIME LEFT: 172799.93
 STEP:   4 TIME =     0.02 SECS, INTEGRAL =      0.07 TIME LEFT: 172799.91
 STEP:   5 TIME =     0.01 SECS, INTEGRAL =      0.08 TIME LEFT: 172799.90
 STEP:   6 TIME =     0.02 SECS, INTEGRAL =      0.10 TIME LEFT: 172799.88
 STEP:   7 TIME =     0.02 SECS, INTEGRAL =      0.12 TIME LEFT: 172799.86
 STEP:   8 TIME =     0.02 SECS, INTEGRAL =      0.14 TIME LEFT: 172799.84
 STEP:   9 TIME =     0.03 SECS, INTEGRAL =      0.16 TIME LEFT: 172799.82
 STEP:  10 TIME =     0.02 SECS, INTEGRAL =      0.18 TIME LEFT: 172799.80
 STEP:  11 TIME =     0.02 SECS, INTEGRAL =      0.20 TIME LEFT: 172799.78
 STEP:  12 TIME =     0.02 SECS, INTEGRAL =      0.21 TIME LEFT: 172799.77
 STEP:  13 TIME =     0.04 SECS, INTEGRAL =      0.25 TIME LEFT: 172799.73
 STEP:  14 TIME =     0.04 SECS, INTEGRAL =      0.29 TIME LEFT: 172799.69
 STEP:  15 TIME =     0.03 SECS, INTEGRAL =      0.32 TIME LEFT: 172799.66
 STEP:  16 TIME =     0.03 SECS, INTEGRAL =      0.34 TIME LEFT: 172799.64
 STEP:  17 TIME =     0.03 SECS, INTEGRAL =      0.37 TIME LEFT: 172799.61
 STEP:  18 TIME =     0.03 SECS, INTEGRAL =      0.40 TIME LEFT: 172799.58
 STEP:  19 TIME =     0.03 SECS, INTEGRAL =      0.43 TIME LEFT: 172799.55
 STEP:  20 TIME =     0.03 SECS, INTEGRAL =      0.46 TIME LEFT: 172799.52
 STEP:  21 TIME =     0.04 SECS, INTEGRAL =      0.50 TIME LEFT: 172799.48
 STEP:  22 TIME =     0.03 SECS, INTEGRAL =      0.52 TIME LEFT: 172799.46
 STEP:  23 TIME =     0.02 SECS, INTEGRAL =      0.54 TIME LEFT: 172799.44
 STEP:  24 TIME =     0.02 SECS, INTEGRAL =      0.56 TIME LEFT: 172799.42
 STEP:  25 TIME =     0.02 SECS, INTEGRAL =      0.58 TIME LEFT: 172799.40
 STEP:  26 TIME =     0.02 SECS, INTEGRAL =      0.59 TIME LEFT: 172799.39
 STEP:  27 TIME =     0.03 SECS, INTEGRAL =      0.62 TIME LEFT: 172799.36
 STEP:  28 TIME =     0.01 SECS, INTEGRAL =      0.63 TIME LEFT: 172799.35
 STEP:  29 TIME =     0.02 SECS, INTEGRAL =      0.65 TIME LEFT: 172799.33
 STEP:  30 TIME =     0.04 SECS, INTEGRAL =      0.68 TIME LEFT: 172799.30
 STEP:  31 TIME =     0.02 SECS, INTEGRAL =      0.70 TIME LEFT: 172799.28
 STEP:  32 TIME =     0.02 SECS, INTEGRAL =      0.72 TIME LEFT: 172799.26
 STEP:  33 TIME =     0.03 SECS, INTEGRAL =      0.75 TIME LEFT: 172799.23
 STEP:  34 TIME =     0.02 SECS, INTEGRAL =      0.77 TIME LEFT: 172799.21
 STEP:  35 TIME =     0.02 SECS, INTEGRAL =      0.79 TIME LEFT: 172799.19
 STEP:  36 TIME =     0.03 SECS, INTEGRAL =      0.82 TIME LEFT: 172799.16
 STEP:  37 TIME =     0.03 SECS, INTEGRAL =      0.85 TIME LEFT: 172799.13
 STEP:  38 TIME =     0.03 SECS, INTEGRAL =      0.88 TIME LEFT: 172799.11
 STEP:  39 TIME =     0.03 SECS, INTEGRAL =      0.90 TIME LEFT: 172799.08
 STEP:  40 TIME =     0.03 SECS, INTEGRAL =      0.93 TIME LEFT: 172799.05
 STEP:  41 TIME =     0.03 SECS, INTEGRAL =      0.96 TIME LEFT: 172799.02
 STEP:  42 TIME =     0.02 SECS, INTEGRAL =      0.97 TIME LEFT: 172799.01
 STEP:  43 TIME =     0.02 SECS, INTEGRAL =      0.99 TIME LEFT: 172798.99
 STEP:  44 TIME =     0.02 SECS, INTEGRAL =      1.01 TIME LEFT: 172798.97
 STEP:  45 TIME =     0.02 SECS, INTEGRAL =      1.03 TIME LEFT: 172798.95
 STEP:  46 TIME =     0.02 SECS, INTEGRAL =      1.05 TIME LEFT: 172798.93
 STEP:  47 TIME =     0.02 SECS, INTEGRAL =      1.07 TIME LEFT: 172798.91
 STEP:  48 TIME =     0.02 SECS, INTEGRAL =      1.08 TIME LEFT: 172798.90
 STEP:  49 TIME =     0.02 SECS, INTEGRAL =      1.10 TIME LEFT: 172798.88
 STEP:  50 TIME =     0.02 SECS, INTEGRAL =      1.12 TIME LEFT: 172798.86
 STEP:  51 TIME =     0.02 SECS, INTEGRAL =      1.14 TIME LEFT: 172798.84
 STEP:  52 TIME =     0.02 SECS, INTEGRAL =      1.16 TIME LEFT: 172798.82
 STEP:  53 TIME =     0.02 SECS, INTEGRAL =      1.18 TIME LEFT: 172798.80
 STEP:  54 TIME =     0.01 SECS, INTEGRAL =      1.19 TIME LEFT: 172798.79
 STEP:  55 TIME =     0.02 SECS, INTEGRAL =      1.20 TIME LEFT: 172798.78
 STEP:  56 TIME =     0.04 SECS, INTEGRAL =      1.24 TIME LEFT: 172798.74
 STEP:  57 TIME =     0.02 SECS, INTEGRAL =      1.26 TIME LEFT: 172798.72
 STEP:  58 TIME =     0.04 SECS, INTEGRAL =      1.30 TIME LEFT: 172798.68
 STEP:  59 TIME =     0.01 SECS, INTEGRAL =      1.31 TIME LEFT: 172798.67
 STEP:  60 TIME =     0.02 SECS, INTEGRAL =      1.32 TIME LEFT: 172798.66
 STEP:  61 TIME =     0.02 SECS, INTEGRAL =      1.34 TIME LEFT: 172798.64
 STEP:  62 TIME =     0.02 SECS, INTEGRAL =      1.36 TIME LEFT: 172798.62
 STEP:  63 TIME =     0.02 SECS, INTEGRAL =      1.38 TIME LEFT: 172798.61
 STEP:  64 TIME =     0.02 SECS, INTEGRAL =      1.39 TIME LEFT: 172798.59
 STEP:  65 TIME =     0.02 SECS, INTEGRAL =      1.41 TIME LEFT: 172798.57
 STEP:  66 TIME =     0.02 SECS, INTEGRAL =      1.42 TIME LEFT: 172798.56
 STEP:  67 TIME =     0.02 SECS, INTEGRAL =      1.44 TIME LEFT: 172798.54
 STEP:  68 TIME =     0.01 SECS, INTEGRAL =      1.45 TIME LEFT: 172798.53
 STEP:  69 TIME =     0.01 SECS, INTEGRAL =      1.46 TIME LEFT: 172798.52
 STEP:  70 TIME =     0.02 SECS, INTEGRAL =      1.48 TIME LEFT: 172798.50
 STEP:  71 TIME =     0.02 SECS, INTEGRAL =      1.49 TIME LEFT: 172798.49
 STEP:  72 TIME =     0.01 SECS, INTEGRAL =      1.50 TIME LEFT: 172798.48
 STEP:  73 TIME =     0.02 SECS, INTEGRAL =      1.52 TIME LEFT: 172798.46
 STEP:  74 TIME =     0.02 SECS, INTEGRAL =      1.54 TIME LEFT: 172798.45
 STEP:  75 TIME =     0.01 SECS, INTEGRAL =      1.55 TIME LEFT: 172798.43

(To convert to Hartree/Bohr^2, multiply by (10^(-21) x N x a0^2)/(4.184 x 627.51) =  0.0642)


           FORCE MATRIX IN MILLIDYNES/ANGSTROM


                  C  1       H  2       C  3       H  4       C  5       H  6
 ------------------------------------------------------------------------------
     C    1  14.389585
     H    2   3.355890   4.240676
     C    3   6.952812   0.765956  15.106907
     H    4   0.789852   0.085557   3.449454   4.386780
     C    5   2.132959   0.176486   5.561890   0.780400  15.105221
     H    6   0.103241   0.006178   0.758947   0.032422   3.436748   4.344672
     C    7   1.312866   0.143676   2.233536   0.102015   6.900249   0.778239
     H    8   0.142092   0.026813   0.182779   0.006460   0.797967   0.080754
     H    9   0.025296   0.005695   0.100353   0.007743   0.749662   0.044608
     C   10   3.928298   0.672148   0.880204   0.052703   0.132609   0.013956
     H   11   0.740232   0.020797   0.049424   0.004370   0.028876   0.002787
     H   12   0.723505   0.042254   0.024154   0.017399   0.015365   0.001918
     H   13   0.735002   0.015526   0.027692   0.011347   0.017282   0.002075
     O   14   0.110197   0.020996   0.083902   0.005874   0.061936   0.010045
     C   15   0.213478   0.031488   0.194549   0.020632   0.202126   0.014172
     C   16   0.406692   0.115001   0.243849   0.012225   0.255575   0.033363
     C   17   1.474591   0.155501   1.638010   0.047623   2.040285   0.067354
     O   18   0.038836   0.010337   0.046405   0.006527   0.053899   0.008113
     C   19   1.659576   0.357741   1.715347   0.050845   1.560472   0.055604
     O   20   0.094389   0.022167   0.091117   0.007354   0.086810   0.009371
     H   21   0.348663   0.010249   0.151898   0.005994   0.148907   0.006619
     C   22   0.132735   0.014597   0.153170   0.010127   0.163563   0.012766
     H   23   0.019082   0.001957   0.018215   0.001997   0.019823   0.002164
     H   24   0.009241   0.001650   0.009718   0.001886   0.010541   0.003909
     H   25   0.014152   0.002304   0.019216   0.004872   0.038431   0.013760


                  C  7       H  8       H  9       C 10       H 11       H 12
 ------------------------------------------------------------------------------
     C    7  13.076337
     H    8   3.444533   4.209105
     H    9   3.516133   0.443500   4.265702
     C   10   0.071431   0.011716   0.009228  11.639589
     H   11   0.029504   0.004013   0.002304   3.341823   4.135850
     H   12   0.014209   0.002123   0.001636   3.415079   0.449174   4.212384
     H   13   0.008926   0.002296   0.000970   3.341101   0.453226   0.455640
     O   14   0.086538   0.026982   0.022739   0.052643   0.032525   0.009414
     C   15   0.414833   0.128242   0.073174   0.049499   0.025483   0.009116
     C   16   0.378372   0.052461   0.030175   0.139460   0.103516   0.021672
     C   17   2.222650   0.433766   0.241172   0.056285   0.026693   0.013551
     O   18   0.063821   0.019850   0.029702   0.021072   0.008617   0.004526
     C   19   1.732915   0.160559   0.049090   0.186677   0.035336   0.014314
     O   20   0.113846   0.018489   0.008762   0.091265   0.053220   0.009309
     H   21   0.156418   0.013185   0.004506   0.023672   0.013347   0.017488
     C   22   0.432571   0.013643   0.014859   0.019765   0.005948   0.005336
     H   23   0.031784   0.001796   0.001666   0.004655   0.001425   0.001431
     H   24   0.014603   0.002871   0.017849   0.003975   0.001182   0.001064
     H   25   0.027713   0.003723   0.008491   0.006515   0.001594   0.001855


                  H 13       O 14       C 15       C 16       C 17       O 18
 ------------------------------------------------------------------------------
     H   13   4.158925
     O   14   0.008173   8.963453
     C   15   0.009256   3.644944  18.540539
     C   16   0.020505   3.139699   2.371152  18.845907
     C   17   0.007496   1.148243   2.665911   1.567709  14.471018
     O   18   0.004221   1.856414  12.825878   0.440606   0.998973  14.844820
     C   19   0.014968   1.262853   1.233313   3.575120   6.166078   0.125192
     O   20   0.011270   1.828185   0.413353  12.698421   0.152958   0.127563
     H   21   0.003076   0.057513   0.090256   0.612283   0.747213   0.014564
     C   22   0.003166   0.112203   0.508841   0.123734   4.011077   0.055285
     H   23   0.000754   0.016927   0.037003   0.023718   0.735780   0.012987
     H   24   0.000885   0.028227   0.075753   0.028995   0.722455   0.030905
     H   25   0.001133   0.018914   0.034222   0.027925   0.730413   0.007828


                  C 19       O 20       H 21       C 22       H 23       H 24
 ------------------------------------------------------------------------------
     C   19  13.542591
     O   20   1.158485  14.759766
     H   21   3.547288   0.034551   4.381015
     C   22   0.725458   0.033543   0.047242  11.644169
     H   23   0.034424   0.009272   0.012576   3.348468   4.166080
     H   24   0.044211   0.006054   0.003107   3.389136   0.450271   4.187156
     H   25   0.030648   0.006065   0.010488   3.398634   0.456386   0.454495


                  H 25
 ------------------
     H   25   4.212005


          HEAT OF FORMATION =     -60.755358 KCALS/MOLE

          ZERO POINT ENERGY     117.641 KCAL/MOL

         NOTE: SYSTEM IS NOT A GROUND STATE, THEREFORE ZERO POINT
         ENERGY IS NOT MEANINGFULL. ZERO POINT ENERGY PRINTED
         DOES NOT INCLUDE THE  1 IMAGINARY FREQUENCIES


           NORMAL COORDINATE ANALYSIS (Total motion = 1 Angstrom)


   Root No.       1         2         3         4         5         6         7         8

                 1 A       2 A       3 A       4 A       5 A       6 A       7 A       8 A   

                -697.6      59.6     116.1     134.1     138.5     141.8     151.0     177.6
  
           1   -0.0131    0.0268    0.0084   -0.0162    0.0045    0.0039   -0.0130    0.0040
           2    0.0184    0.0084   -0.0208    0.0030    0.0041   -0.0109    0.0032    0.0212
           3   -0.0802   -0.0020    0.0019   -0.0204    0.0024    0.0023   -0.0198    0.0214
           4   -0.0146    0.0269    0.0087   -0.0164    0.0044    0.0038   -0.0135    0.0045
           5   -0.0090    0.0315   -0.0066    0.0064    0.0119   -0.0179    0.0020    0.0393
           6    0.0465    0.0174    0.0004   -0.0141   -0.0021    0.0086   -0.0150   -0.0027
           7    0.0016    0.0014   -0.0042   -0.0234   -0.0028    0.0109   -0.0145   -0.0111
           8   -0.0269   -0.0070   -0.0287   -0.0021   -0.0002   -0.0069    0.0016    0.0130
           9   -0.0086   -0.0028   -0.0060   -0.0025    0.0037   -0.0045   -0.0123    0.0071
          10   -0.0156    0.0047   -0.0046   -0.0256   -0.0045    0.0135   -0.0151   -0.0147
          11    0.0031   -0.0271   -0.0421   -0.0036   -0.0066   -0.0024    0.0021   -0.0048
          12    0.0480   -0.0135   -0.0052    0.0045    0.0093   -0.0133   -0.0106    0.0185
          13    0.0236   -0.0286   -0.0157   -0.0234   -0.0046    0.0098   -0.0148   -0.0181
          14    0.0158    0.0009   -0.0190   -0.0049    0.0030   -0.0084   -0.0001    0.0287
          15    0.0105    0.0090   -0.0149    0.0035   -0.0004   -0.0012   -0.0082   -0.0157
          16   -0.0309   -0.0490   -0.0241   -0.0259   -0.0072    0.0117   -0.0157   -0.0276
          17   -0.0242   -0.0145   -0.0244   -0.0077    0.0008   -0.0062   -0.0007    0.0221
          18    0.0355    0.0129   -0.0256    0.0164    0.0016   -0.0094   -0.0063   -0.0228
          19    0.0123   -0.0304   -0.0175   -0.0159   -0.0021    0.0033   -0.0141   -0.0158
          20    0.0650    0.0241   -0.0003   -0.0045    0.0067   -0.0100    0.0005    0.0469
          21   -0.0869    0.0124   -0.0100   -0.0088   -0.0063    0.0121   -0.0083   -0.0264
          22   -0.0136   -0.0153   -0.0102   -0.0177   -0.0023    0.0060   -0.0128   -0.0117
          23   -0.0335    0.0459    0.0038   -0.0006    0.0060   -0.0092    0.0042    0.0468
          24    0.0465    0.0085    0.0000   -0.0201   -0.0044    0.0167   -0.0116   -0.0113
          25    0.0167   -0.0506   -0.0277   -0.0102   -0.0018   -0.0004   -0.0160   -0.0275
          26    0.0244    0.0283    0.0109   -0.0016    0.0068   -0.0094    0.0015    0.0444
          27   -0.0312    0.0188   -0.0222   -0.0169   -0.0070    0.0141   -0.0084   -0.0166
          28   -0.0023    0.0616    0.0250   -0.0068    0.0097   -0.0019   -0.0150    0.0170
          29   -0.0032   -0.0017   -0.0333    0.0031    0.0002   -0.0081    0.0051    0.0035
          30   -0.0145   -0.0236    0.0163   -0.0332    0.0054    0.0032   -0.0229    0.0556
          31    0.0077    0.0709    0.0432   -0.0482    0.1273   -0.0358    0.0192   -0.0007
          32    0.0144    0.0051   -0.0236    0.0070   -0.0054   -0.0082    0.0016    0.0211
          33    0.0037   -0.0211    0.0146    0.0271   -0.1534    0.0460   -0.0734    0.1138
          34    0.0011    0.0576    0.0298   -0.0301    0.0663   -0.0172    0.0021    0.0052
          35    0.0002   -0.0263   -0.0489    0.0244   -0.0804    0.0173   -0.0177    0.0189
          36   -0.0030   -0.0435    0.0287   -0.1084    0.1803   -0.0435    0.0307    0.0184
          37   -0.0134    0.0846    0.0153    0.0736   -0.1762    0.0477   -0.0730    0.0605
          38   -0.0339    0.0077   -0.0394   -0.0259    0.0932   -0.0346    0.0372   -0.0488
          39   -0.0119   -0.0242    0.0168   -0.0282   -0.0092    0.0072   -0.0278    0.0628
          40    0.0062   -0.0099   -0.0032    0.0002   -0.0088   -0.0227    0.0083   -0.0012
          41   -0.0001   -0.0106    0.0062   -0.0151   -0.0151   -0.0231   -0.0014   -0.0225
          42   -0.0032   -0.0087   -0.0223    0.0442    0.0307    0.0681    0.0135    0.0177
          43    0.0026    0.0061    0.0038    0.0105   -0.0010   -0.0046    0.0080   -0.0003
          44   -0.0007   -0.0031   -0.0031   -0.0032   -0.0041    0.0011   -0.0004   -0.0122
          45    0.0016   -0.0168    0.0141    0.0128    0.0047    0.0070    0.0045   -0.0011
          46    0.0070   -0.0221   -0.0126    0.0059   -0.0021   -0.0079    0.0090    0.0098
          47   -0.0027   -0.0057    0.0203   -0.0004   -0.0038    0.0028   -0.0015   -0.0133
          48    0.0005    0.0103   -0.0196    0.0099    0.0023    0.0032    0.0082   -0.0055
          49   -0.0276    0.0011    0.0067    0.0152    0.0019   -0.0068    0.0096    0.0060
          50   -0.0710    0.0051    0.0210    0.0084   -0.0000    0.0005    0.0033   -0.0098
          51    0.0914    0.0038    0.0072   -0.0106   -0.0030    0.0123   -0.0086   -0.0118
          52   -0.0008    0.0214    0.0015    0.0098    0.0041    0.0143    0.0002    0.0021
          53    0.0023   -0.0024   -0.0341   -0.0039    0.0003    0.0292   -0.0019   -0.0206
          54   -0.0019   -0.0396    0.0595    0.0148   -0.0086   -0.0578    0.0181    0.0058
          55   -0.0021   -0.0102   -0.0081    0.0124    0.0005   -0.0079    0.0120    0.0094
          56   -0.0058    0.0085    0.0236    0.0056    0.0008    0.0018    0.0021   -0.0049
          57    0.0900    0.0042    0.0116   -0.0040   -0.0031    0.0100   -0.0080   -0.0196
          58   -0.0009   -0.0394   -0.0194    0.0080    0.0013    0.0080    0.0081    0.0065
          59    0.0001   -0.0148    0.0298    0.0035    0.0026    0.0265   -0.0077   -0.0141
          60   -0.0016    0.0310   -0.0533   -0.0017   -0.0159   -0.0650    0.0280   -0.0051
          61   -0.0021   -0.0145   -0.0112    0.0110   -0.0001   -0.0083    0.0120    0.0087
          62    0.0045    0.0206    0.0328    0.0112    0.0023    0.0041    0.0032   -0.0082
          63   -0.0778   -0.0020    0.0167   -0.0121   -0.0027    0.0047   -0.0149   -0.0107
          64   -0.0022    0.0164    0.0310    0.0196    0.0002   -0.0004    0.0159   -0.0074
          65    0.0076    0.0015    0.0382    0.0119    0.0054    0.0001   -0.0015   -0.0068
          66    0.0022    0.0246    0.0146   -0.0086   -0.0115    0.0206    0.0053   -0.0316
          67   -0.0235    0.0233    0.0039    0.1038    0.0517   -0.1008   -0.0995   -0.0516
          68    0.0463   -0.0066    0.0392    0.0400    0.0292   -0.0360   -0.0484   -0.0108
          69    0.0210    0.0231    0.0021    0.0486    0.0273   -0.0491   -0.0779   -0.0550
          70    0.0094    0.0267    0.0608   -0.0018   -0.0175    0.0363    0.0587   -0.0069
          71    0.0108   -0.0069    0.0112    0.0617    0.0418   -0.0675   -0.0823   -0.0213
          72   -0.0218    0.0289    0.0343   -0.0921   -0.0695    0.1229    0.1293    0.0007
          73    0.0088    0.0123    0.0506   -0.0360   -0.0341    0.0665    0.0925    0.0201
          74    0.0029    0.0144    0.0808   -0.0665   -0.0513    0.1065    0.1247    0.0166
          75   -0.0184    0.0397    0.0144    0.0228    0.0018   -0.0083   -0.0243   -0.0582


   Root No.       9        10        11        12        13        14        15        16

                 9 A      10 A      11 A      12 A      13 A      14 A      15 A      16 A   

                 196.1     257.6     272.8     290.7     312.2     373.4     401.4     431.5
  
           1   -0.0083    0.0011    0.0090    0.0275   -0.0107    0.0021   -0.0407    0.0376
           2    0.0058   -0.0137   -0.0113   -0.0284   -0.0164   -0.0053   -0.0080    0.0062
           3    0.0189   -0.0065    0.0238   -0.0074    0.0653   -0.0212   -0.0179   -0.0049
           4   -0.0068    0.0002    0.0076    0.0248   -0.0098    0.0023   -0.0373    0.0345
           5    0.0285   -0.0228   -0.0295   -0.0469   -0.0196   -0.0019    0.0069    0.0143
           6    0.0023   -0.0004    0.0481   -0.0440    0.0714   -0.0567   -0.0395   -0.0596
           7   -0.0266    0.0043    0.0194    0.0268   -0.0026    0.0003   -0.0154   -0.0045
           8   -0.0044   -0.0130   -0.0044   -0.0299   -0.0091   -0.0063    0.0061   -0.0180
           9    0.0563    0.0043   -0.0086    0.0387    0.0153    0.0204    0.0218    0.0232
          10   -0.0390    0.0036    0.0321    0.0096    0.0021   -0.0166   -0.0316   -0.0225
          11   -0.0098   -0.0135   -0.0051   -0.0472   -0.0139   -0.0107    0.0309   -0.0593
          12    0.0988    0.0033   -0.0519    0.0831    0.0009    0.0705    0.0712    0.0770
          13    0.0013   -0.0052   -0.0099    0.0027    0.0097    0.0113    0.0336   -0.0082
          14   -0.0046   -0.0106   -0.0002   -0.0123    0.0147    0.0002    0.0116    0.0038
          15    0.0315    0.0074    0.0042    0.0256   -0.0490   -0.0007   -0.0265   -0.0284
          16    0.0142   -0.0144   -0.0234   -0.0397    0.0275    0.0089    0.0621    0.0180
          17    0.0025   -0.0162   -0.0084   -0.0432    0.0314   -0.0005    0.0414    0.0238
          18    0.0519    0.0017   -0.0123    0.0473   -0.1080   -0.0048   -0.1025   -0.0847
          19    0.0262   -0.0090   -0.0235    0.0145    0.0018    0.0116   -0.0021   -0.0226
          20   -0.0195    0.0076    0.0176    0.0521    0.0216    0.0147    0.0238   -0.0290
          21   -0.0161    0.0170    0.0315   -0.0065   -0.0368   -0.0040    0.0472    0.0017
          22    0.0041    0.0026   -0.0031    0.0351   -0.0014    0.0132    0.0281   -0.0391
          23   -0.0390    0.0224    0.0430    0.0789   -0.0014    0.0067    0.0402   -0.0663
          24   -0.0324    0.0173    0.0337   -0.0013    0.0005    0.0151    0.0899    0.0284
          25    0.0609   -0.0259   -0.0528   -0.0206   -0.0007    0.0075   -0.0474    0.0005
          26   -0.0234    0.0169    0.0212    0.0627    0.0284    0.0206    0.0400   -0.0299
          27   -0.0325    0.0132    0.0455   -0.0014   -0.0485   -0.0118    0.0533   -0.0140
          28    0.0292   -0.0141   -0.0175   -0.0289   -0.0034   -0.0043    0.0052   -0.0053
          29    0.0016   -0.0041    0.0123   -0.0048    0.0081   -0.0109   -0.0366    0.0268
          30   -0.0232   -0.0157   -0.0142   -0.0092   -0.0316   -0.0024   -0.0103    0.0029
          31    0.0408   -0.0206   -0.0424   -0.0646   -0.0201   -0.0020    0.0454   -0.0388
          32    0.0034   -0.0131   -0.0120   -0.0277   -0.0230   -0.0045   -0.0092    0.0068
          33   -0.0333   -0.0259   -0.0358   -0.0143   -0.0791    0.0078   -0.0001    0.0006
          34    0.0243   -0.0133   -0.0219   -0.0307   -0.0136   -0.0029    0.0087   -0.0073
          35   -0.0319    0.0034    0.0305    0.0403   -0.0098   -0.0048   -0.0836    0.0702
          36   -0.0501   -0.0109   -0.0241   -0.0026   -0.0739    0.0035   -0.0151    0.0110
          37    0.0590   -0.0212   -0.0141   -0.0422    0.0330   -0.0101    0.0194   -0.0206
          38    0.0301    0.0070    0.0458   -0.0009    0.0934   -0.0280   -0.0479    0.0256
          39   -0.0262   -0.0172   -0.0182   -0.0095   -0.0417   -0.0004   -0.0086    0.0028
          40   -0.0028    0.0070    0.0037   -0.0030   -0.0014   -0.0616    0.0078    0.0084
          41    0.0008    0.0049   -0.0026   -0.0031    0.0010    0.0159   -0.0036   -0.0001
          42   -0.0047   -0.0030   -0.0101    0.0082    0.0022   -0.0029   -0.0009   -0.0010
          43   -0.0055    0.0219   -0.0039   -0.0035   -0.0010   -0.0368    0.0017   -0.0072
          44    0.0004    0.0100   -0.0089    0.0041    0.0059    0.0057   -0.0079   -0.0085
          45   -0.0038    0.0135   -0.0018   -0.0086   -0.0004    0.0004    0.0079    0.0259
          46   -0.0022    0.0024    0.0033    0.0008    0.0028   -0.0292    0.0061    0.0160
          47   -0.0028    0.0142   -0.0145    0.0041   -0.0003    0.0079    0.0012    0.0066
          48    0.0001    0.0066    0.0078   -0.0105    0.0068   -0.0169   -0.0097   -0.0184
          49   -0.0026    0.0169   -0.0063    0.0044    0.0015   -0.0391    0.0008   -0.0094
          50   -0.0003    0.0199   -0.0104    0.0056    0.0002    0.0124   -0.0041   -0.0132
          51   -0.0067    0.0133    0.0053   -0.0182    0.0051    0.0000    0.0058    0.0312
          52   -0.0078    0.0655   -0.0049   -0.0194    0.0052    0.0515   -0.0054    0.0039
          53    0.0017   -0.0267   -0.0049    0.0105   -0.0051   -0.0718    0.0087    0.0052
          54   -0.0023    0.0019   -0.0061    0.0050    0.0055   -0.0186   -0.0048   -0.0093
          55   -0.0049    0.0133   -0.0047    0.0058   -0.0051   -0.0343    0.0072    0.0118
          56   -0.0052    0.0191   -0.0193    0.0110   -0.0009    0.0154    0.0014    0.0057
          57    0.0035    0.0149    0.0213   -0.0289    0.0094   -0.0345   -0.0109   -0.0263
          58   -0.0001   -0.0213    0.0222   -0.0164    0.0024    0.1055   -0.0069   -0.0120
          59   -0.0011    0.0132   -0.0078   -0.0016    0.0033    0.0083   -0.0047   -0.0051
          60   -0.0043   -0.0016   -0.0058    0.0008   -0.0036    0.0382    0.0024    0.0054
          61   -0.0039    0.0099   -0.0023    0.0043   -0.0040   -0.0368    0.0083    0.0155
          62   -0.0095    0.0289   -0.0252    0.0115   -0.0110    0.0233   -0.0014   -0.0054
          63    0.0161    0.0107    0.0280   -0.0254    0.0450   -0.0417   -0.0184   -0.0458
          64   -0.0039   -0.0684    0.0118    0.0093   -0.0017   -0.0070    0.0037   -0.0035
          65    0.0234   -0.0129    0.0400   -0.0083   -0.0219    0.0227    0.0073    0.0145
          66   -0.0344   -0.0365   -0.0306    0.0014    0.0233    0.0285   -0.0036    0.0075
          67   -0.0640   -0.1160   -0.0180    0.0218    0.0199    0.0157    0.0014   -0.0176
          68    0.0319   -0.0343    0.0848   -0.0239   -0.0377    0.0265    0.0229    0.0495
          69   -0.0584   -0.0720   -0.0190   -0.0016    0.0246    0.0416    0.0039    0.0203
          70    0.0140   -0.1354    0.0387    0.0112   -0.0140    0.0206    0.0072    0.0081
          71   -0.0015    0.0079    0.0330   -0.0128   -0.0145    0.0122    0.0109    0.0186
          72   -0.0029    0.0059   -0.0516    0.0095    0.0232    0.0143   -0.0162   -0.0165
          73    0.0344   -0.0449    0.0316    0.0015   -0.0148   -0.0180    0.0063    0.0076
          74    0.0632   -0.0490    0.0533   -0.0021   -0.0334    0.0418    0.0026    0.0131
          75   -0.0656   -0.0993   -0.0517    0.0182    0.0345    0.0596   -0.0115   -0.0116


   Root No.      17        18        19        20        21        22        23        24

                17 A      18 A      19 A      20 A      21 A      22 A      23 A      24 A   

                 465.7     553.9     585.7     617.3     620.2     660.1     708.1     797.3
  
           1    0.0285   -0.0008   -0.0021   -0.0013    0.0031   -0.0014    0.0020   -0.0011
           2    0.0124    0.0013    0.0009   -0.0231    0.0075   -0.0007   -0.0000   -0.0022
           3   -0.0386   -0.0125   -0.0032   -0.0078    0.0081   -0.0110   -0.0117    0.0056
           4    0.0253   -0.0011   -0.0027    0.0001    0.0024   -0.0010    0.0010   -0.0008
           5    0.0157   -0.0047    0.0018   -0.0740    0.0224   -0.0042   -0.0015   -0.0039
           6   -0.0439   -0.0084    0.0049   -0.0201    0.0154   -0.0219    0.0042   -0.0511
           7   -0.0043    0.0051   -0.0047    0.0565   -0.0190   -0.0044    0.0082    0.0100
           8   -0.0119    0.0056   -0.0010    0.0207   -0.0105    0.0076    0.0024    0.0097
           9    0.0284    0.0037   -0.0051    0.0236   -0.0052   -0.0006   -0.0008   -0.0077
          10   -0.0336   -0.0001   -0.0032    0.0545   -0.0201   -0.0068    0.0033   -0.0350
          11   -0.0431    0.0073    0.0017    0.0102   -0.0106    0.0026   -0.0037   -0.0253
          12    0.1149    0.0179   -0.0087    0.0097    0.0053    0.0059    0.0091    0.1242
          13    0.0059    0.0047    0.0015   -0.0302    0.0110   -0.0073   -0.0055    0.0046
          14    0.0098    0.0072   -0.0081    0.0752   -0.0264    0.0018    0.0083    0.0179
          15   -0.0298   -0.0000   -0.0008    0.0134   -0.0053   -0.0003   -0.0026   -0.0281
          16    0.0289    0.0062    0.0011   -0.0253    0.0075   -0.0156   -0.0182   -0.0536
          17    0.0301    0.0079   -0.0085    0.0712   -0.0265   -0.0053   -0.0030   -0.0359
          18   -0.0872    0.0030    0.0097   -0.0223    0.0075    0.0240    0.0190    0.1283
          19   -0.0130    0.0030    0.0098   -0.0246    0.0052    0.0133    0.0035    0.0020
          20   -0.0087   -0.0006    0.0023   -0.0095   -0.0005    0.0215    0.0074   -0.0159
          21    0.0149    0.0043   -0.0090   -0.0036    0.0035   -0.0232   -0.0101   -0.0151
          22   -0.0047    0.0025    0.0096   -0.1172    0.0406    0.0165    0.0111    0.0533
          23   -0.0018    0.0062    0.0058   -0.1108    0.0388    0.0249    0.0261    0.1158
          24    0.0154   -0.0128   -0.0173   -0.0584    0.0260   -0.0185   -0.0263   -0.1191
          25   -0.0162    0.0057    0.0180    0.1086   -0.0473    0.0161    0.0066   -0.0898
          26    0.0018   -0.0033    0.0191   -0.0631    0.0070    0.0378    0.0115   -0.0940
          27    0.0029    0.0074   -0.0408   -0.0131    0.0294   -0.0528   -0.0161    0.1793
          28   -0.0001    0.0003   -0.0002   -0.0069    0.0024   -0.0039    0.0017   -0.0024
          29    0.0202   -0.0023    0.0012   -0.0408    0.0171   -0.0072    0.0003   -0.0060
          30    0.0029   -0.0017   -0.0025   -0.0116    0.0053   -0.0035   -0.0035    0.0001
          31   -0.0143    0.0100    0.0001    0.0085   -0.0044    0.0076    0.0004    0.0005
          32    0.0199    0.0067    0.0013   -0.0300    0.0112    0.0024    0.0038   -0.0099
          33    0.0215    0.0095   -0.0025   -0.0062    0.0007    0.0052    0.0072   -0.0137
          34    0.0028    0.0039   -0.0005   -0.0024    0.0005   -0.0009    0.0037   -0.0043
          35    0.0558   -0.0054   -0.0001   -0.0547    0.0236   -0.0120    0.0070   -0.0201
          36    0.0273    0.0095   -0.0031   -0.0076    0.0032    0.0025    0.0083   -0.0171
          37   -0.0264   -0.0064    0.0003   -0.0044    0.0009   -0.0064   -0.0079    0.0146
          38   -0.0173   -0.0190    0.0020   -0.0504    0.0267   -0.0220   -0.0175    0.0192
          39    0.0070    0.0011   -0.0029   -0.0088    0.0036   -0.0009   -0.0011   -0.0041
          40   -0.0063    0.0238    0.0314    0.0116    0.0689    0.0250   -0.0037    0.0038
          41   -0.0007    0.0267   -0.0531   -0.0087   -0.0309    0.0231    0.0051   -0.0020
          42   -0.0044    0.0264   -0.0067    0.0001    0.0077   -0.0525   -0.0011   -0.0006
          43    0.0135   -0.0565   -0.0065    0.0050    0.0018   -0.0448   -0.0389    0.0062
          44    0.0048    0.0479   -0.0438   -0.0116   -0.0700   -0.0484   -0.0451   -0.0014
          45   -0.0287   -0.0352   -0.0348   -0.0082   -0.0238    0.1186    0.1016    0.0033
          46   -0.0269    0.0830    0.0199   -0.0029   -0.0017   -0.0156    0.0221   -0.0022
          47   -0.0169    0.0079   -0.0186    0.0107    0.0836   -0.0486    0.0344   -0.0026
          48    0.0356    0.0338   -0.0085    0.0073    0.0314    0.1360   -0.0895    0.0027
          49    0.0115   -0.0606   -0.0025    0.0014   -0.0101   -0.0005    0.0089   -0.0020
          50    0.0190    0.0041    0.0802   -0.0003   -0.0254    0.0170    0.0301   -0.0037
          51   -0.0360   -0.0395    0.0139   -0.0006   -0.0064   -0.0199   -0.0504    0.0067
          52   -0.0079    0.0173   -0.0526   -0.0075   -0.0340    0.0061    0.0027    0.0040
          53   -0.0005   -0.0574   -0.0191   -0.0049   -0.0427    0.0060    0.0034    0.0046
          54    0.0098   -0.0079   -0.0211   -0.0028   -0.0291   -0.0313   -0.0282    0.0034
          55   -0.0125    0.0257    0.0516   -0.0070   -0.0500    0.0155   -0.0086   -0.0063
          56   -0.0163   -0.0449    0.0481    0.0050    0.0087    0.0025   -0.0218   -0.0031
          57    0.0557    0.0105    0.0281   -0.0006   -0.0088   -0.0306    0.0706   -0.0005
          58    0.0134   -0.0467    0.0233    0.0032    0.0036    0.0030   -0.0064    0.0003
          59    0.0033    0.0017   -0.0266    0.0147    0.1005    0.0065   -0.0053   -0.0013
          60   -0.0112   -0.0133   -0.0010    0.0047    0.0355   -0.0354    0.0234   -0.0009
          61   -0.0183    0.0657    0.0497   -0.0072   -0.0362    0.0011    0.0103   -0.0039
          62    0.0083   -0.1496    0.0511    0.0065   -0.0221    0.0522   -0.0742   -0.0127
          63    0.0573    0.0136    0.0373   -0.0058   -0.0285   -0.1283    0.1997    0.0243
          64    0.0032   -0.0081   -0.0577   -0.0003    0.0083    0.0010    0.0120   -0.0077
          65   -0.0139    0.0192    0.0556   -0.0024   -0.0214    0.0024   -0.0083    0.0083
          66   -0.0072    0.0165    0.0494   -0.0023   -0.0179    0.0042   -0.0153    0.0080
          67    0.0236    0.0308   -0.0388   -0.0037    0.0027    0.0281    0.0548   -0.0111
          68   -0.0540    0.0153    0.0069   -0.0029   -0.0098   -0.0292   -0.0758    0.0199
          69   -0.0203    0.0325    0.0280   -0.0044   -0.0125   -0.0006   -0.0312    0.0119
          70   -0.0130    0.0510   -0.1057   -0.0035    0.0166    0.0068    0.0037   -0.0070
          71   -0.0154   -0.0099    0.0689   -0.0009   -0.0229   -0.0064   -0.0194    0.0088
          72    0.0168    0.0021    0.0774   -0.0017   -0.0247    0.0168    0.0209    0.0043
          73   -0.0105   -0.0258   -0.0691    0.0014    0.0095   -0.0134   -0.0148   -0.0046
          74   -0.0174    0.0693    0.0241   -0.0040   -0.0210    0.0167    0.0033    0.0042
          75    0.0125    0.0823    0.0478   -0.0068   -0.0220    0.0403    0.0384    0.0019


   Root No.      25        26        27        28        29        30        31        32

                25 A      26 A      27 A      28 A      29 A      30 A      31 A      32 A   

                 844.3     898.2     915.5     964.9     990.9    1017.6    1025.8    1027.1
  
           1    0.0030    0.0056   -0.0061    0.0040   -0.0024    0.0071    0.0011    0.0053
           2   -0.0003   -0.0009    0.0001   -0.0013    0.0023    0.0006   -0.0007    0.0011
           3   -0.0025   -0.0057    0.0103    0.0003    0.0017    0.0011   -0.0011    0.0027
           4    0.0031    0.0059   -0.0041    0.0042   -0.0043    0.0042    0.0019    0.0039
           5    0.0118    0.0249   -0.0074    0.0357   -0.0202    0.0671    0.0205    0.0288
           6   -0.0477   -0.1543   -0.0524   -0.1020    0.1960    0.0114   -0.0800   -0.0502
           7   -0.0007   -0.0007    0.0127   -0.0055   -0.0030   -0.0270   -0.0059   -0.0065
           8    0.0048    0.0132    0.0055    0.0033   -0.0027    0.0024   -0.0040    0.0073
           9   -0.0031   -0.0112   -0.0370    0.0011   -0.0002   -0.0176    0.0277    0.0122
          10    0.0008   -0.0067   -0.0574    0.0111   -0.0225   -0.0338    0.0475    0.0168
          11    0.0020    0.0001   -0.0372    0.0118   -0.0095    0.0125    0.0367    0.0252
          12   -0.0062    0.0053    0.1733   -0.0466    0.0606    0.0182   -0.1315   -0.0553
          13   -0.0027   -0.0063    0.0067   -0.0056    0.0103    0.0026    0.0111    0.0036
          14   -0.0038   -0.0059   -0.0029   -0.0001    0.0080    0.0047    0.0121    0.0115
          15    0.0037    0.0011   -0.0040    0.0067   -0.0168    0.0050   -0.0253   -0.0137
          16    0.0017    0.0042   -0.0468    0.0228   -0.0454    0.0197   -0.0547   -0.0197
          17    0.0013    0.0027   -0.0464    0.0242   -0.0399    0.0189   -0.0455   -0.0128
          18   -0.0067    0.0001    0.0835   -0.0427    0.0999   -0.0201    0.1329    0.1018
          19    0.0076    0.0070   -0.0084    0.0054   -0.0056    0.0072   -0.0053   -0.0022
          20    0.0150    0.0080    0.0054    0.0042   -0.0005    0.0193   -0.0060   -0.0098
          21   -0.0064   -0.0014    0.0144   -0.0048    0.0067    0.0100   -0.0009    0.0003
          22   -0.0018    0.0048   -0.0427    0.0108   -0.0166   -0.0412    0.0049    0.0248
          23   -0.0112    0.0103   -0.0879    0.0265   -0.0450   -0.0220   -0.0295   -0.0039
          24    0.0203   -0.0084    0.0906   -0.0312    0.0554   -0.0500    0.0729    0.0658
          25    0.0351    0.0181    0.0507    0.0093    0.0159    0.0835   -0.0248   -0.0357
          26    0.0538    0.0490    0.0394   -0.0054    0.0024   -0.0503    0.0121    0.0444
          27   -0.0902   -0.0772   -0.0845    0.0096   -0.0135    0.0611   -0.0142   -0.0575
          28    0.0008   -0.0014   -0.0036    0.0032    0.0081    0.0230    0.0001    0.0057
          29   -0.0020   -0.0050    0.0010   -0.0104    0.0005   -0.0344   -0.0022   -0.0154
          30   -0.0019   -0.0100    0.0157    0.0064   -0.0213    0.0029    0.0028   -0.0019
          31   -0.0036    0.0015    0.0028   -0.0364   -0.0062   -0.1419   -0.0070   -0.0456
          32   -0.0020    0.0037   -0.0168   -0.0447    0.0223   -0.1419   -0.0114   -0.0480
          33    0.0025    0.0070   -0.0358   -0.0326    0.0464   -0.0607   -0.0112   -0.0193
          34    0.0013    0.0035   -0.0130   -0.0063    0.0187    0.0002   -0.0023   -0.0000
          35    0.0078    0.0021   -0.0459    0.0158    0.0664    0.1505   -0.0010    0.0451
          36    0.0046    0.0075   -0.0462   -0.0165    0.0586    0.0145   -0.0069    0.0061
          37   -0.0057   -0.0087    0.0537    0.0084   -0.0718   -0.0508    0.0101   -0.0208
          38   -0.0110   -0.0283    0.0938    0.0397   -0.1170    0.0457    0.0197    0.0024
          39   -0.0002   -0.0049   -0.0022   -0.0034    0.0023   -0.0093   -0.0014   -0.0037
          40    0.0389   -0.0069   -0.0000    0.0628    0.0099   -0.0101   -0.0150    0.0091
          41   -0.0182   -0.0049    0.0046    0.1003    0.0089   -0.0023    0.0091   -0.0087
          42    0.0025   -0.0048    0.0021    0.0556    0.0051   -0.0037   -0.0004   -0.0003
          43    0.0606   -0.0092   -0.0003   -0.0053   -0.0017    0.0044    0.0118   -0.0081
          44   -0.0148    0.0062   -0.0014   -0.0366   -0.0011   -0.0040   -0.0149    0.0128
          45    0.0106   -0.0020   -0.0029   -0.0178   -0.0014    0.0002   -0.0052    0.0010
          46   -0.0261    0.0054   -0.0016   -0.0510   -0.0023   -0.0000   -0.0123    0.0108
          47   -0.0067   -0.0005   -0.0012   -0.0343   -0.0067    0.0023    0.0016    0.0002
          48   -0.0099    0.0196   -0.0012   -0.0284    0.0002    0.0035    0.0029   -0.0021
          49   -0.0492    0.0167   -0.0010    0.0106    0.0002   -0.0017   -0.0035    0.0025
          50   -0.0042   -0.0062    0.0029    0.0012    0.0007    0.0002    0.0020   -0.0010
          51   -0.0292    0.0232   -0.0027    0.0115    0.0005    0.0008    0.0049   -0.0020
          52    0.0321   -0.0051   -0.0017   -0.0095   -0.0003   -0.0007   -0.0042    0.0026
          53    0.0334   -0.0023   -0.0026   -0.0302   -0.0025    0.0009   -0.0026    0.0020
          54    0.0235   -0.0016   -0.0016   -0.0150   -0.0013    0.0002   -0.0020    0.0017
          55   -0.0420   -0.0069    0.0047   -0.0171   -0.0064    0.0125    0.0350   -0.0274
          56   -0.0340   -0.0043    0.0024    0.0038    0.0140   -0.0011    0.0008   -0.0069
          57   -0.0181   -0.0164    0.0057    0.0028   -0.0184    0.0016    0.0039    0.0056
          58    0.0013   -0.0002   -0.0004   -0.0049    0.0007   -0.0007   -0.0018    0.0010
          59   -0.0063    0.0052   -0.0005   -0.0301   -0.0064    0.0064    0.0103   -0.0063
          60   -0.0017   -0.0009   -0.0001   -0.0114   -0.0033    0.0016    0.0024   -0.0010
          61   -0.0224    0.0095    0.0020   -0.0617   -0.0087    0.0209    0.0357   -0.0256
          62   -0.1010   -0.0761    0.0110    0.1135    0.0071   -0.0257   -0.0144    0.0054
          63    0.0501    0.2601   -0.0207    0.0356    0.0919    0.0062    0.0357   -0.0740
          64   -0.0469    0.0067    0.0027    0.0011    0.0001   -0.0026   -0.0122    0.0150
          65    0.0273   -0.0048   -0.0038   -0.0017   -0.0038   -0.0017   -0.0126    0.0155
          66    0.0191    0.0161   -0.0077    0.0047   -0.0010   -0.0036   -0.0118    0.0060
          67   -0.0010   -0.0604    0.0131   -0.0172   -0.0040    0.0091    0.0168   -0.0024
          68    0.0422    0.0634   -0.0170    0.0207    0.0102   -0.0015    0.0226   -0.0487
          69    0.0454    0.0164   -0.0083    0.0070    0.0042    0.0028    0.0222   -0.0355
          70    0.0428   -0.0237    0.0086   -0.0097    0.0085    0.0155    0.0813   -0.0865
          71   -0.0126    0.0272   -0.0090    0.0072   -0.0042   -0.0096   -0.0467    0.0449
          72   -0.0099   -0.0171   -0.0013    0.0015   -0.0084   -0.0063   -0.0416    0.0558
          73   -0.0582    0.0441   -0.0037    0.0145    0.0047   -0.0060   -0.0147    0.0040
          74    0.0992   -0.0442    0.0054   -0.0214    0.0018    0.0147    0.0538   -0.0562
          75    0.0995   -0.0804    0.0106   -0.0319   -0.0045    0.0157    0.0482   -0.0346


   Root No.      33        34        35        36        37        38        39        40

                33 A      34 A      35 A      36 A      37 A      38 A      39 A      40 A   

                1038.8    1053.0    1056.7    1084.9    1134.1    1170.2    1222.9    1227.7
  
           1   -0.0037    0.0022   -0.0004   -0.0017   -0.0018    0.0606    0.0001    0.0007
           2   -0.0030    0.0013   -0.0025    0.0023   -0.0004    0.0316   -0.0032    0.0036
           3   -0.0041   -0.0019   -0.0016   -0.0395    0.0175    0.0064   -0.0064   -0.0075
           4   -0.0019    0.0015   -0.0002   -0.0022   -0.0011    0.0447   -0.0001   -0.0030
           5    0.0072    0.0105    0.0058   -0.0421    0.0174   -0.0019   -0.0191   -0.0092
           6   -0.0492   -0.0442   -0.0038    0.1423   -0.0680    0.0624    0.0300   -0.0140
           7   -0.0098    0.0008   -0.0080    0.0018    0.0020   -0.0430   -0.0036    0.0011
           8   -0.0198    0.0044   -0.0062   -0.0055   -0.0011    0.0023    0.0012   -0.0008
           9    0.0063   -0.0007    0.0049    0.0148   -0.0079   -0.0131   -0.0011    0.0040
          10    0.0162    0.0028    0.0029    0.0136   -0.0015   -0.0228   -0.0045    0.0045
          11    0.0029    0.0117   -0.0023    0.0236   -0.0061   -0.1798   -0.0129    0.0218
          12   -0.0692   -0.0059   -0.0284   -0.0221    0.0045   -0.0578    0.0008   -0.0061
          13    0.0134   -0.0035    0.0077    0.0004   -0.0040   -0.0064   -0.0032    0.0017
          14   -0.0076    0.0011   -0.0009    0.0050   -0.0021    0.0197    0.0023   -0.0043
          15   -0.0106    0.0100   -0.0185    0.0019    0.0166   -0.0022    0.0000    0.0008
          16   -0.0484    0.0289   -0.0436    0.0015    0.0146    0.0770    0.0026   -0.0071
          17   -0.0533    0.0251   -0.0412    0.0051    0.0133    0.0729    0.0064   -0.0116
          18    0.0072   -0.0135    0.0387    0.0025   -0.0154    0.0691    0.0104   -0.0121
          19   -0.0008   -0.0010    0.0011   -0.0031    0.0047    0.0189    0.0050   -0.0014
          20    0.0258   -0.0097    0.0112   -0.0066    0.0087    0.0080    0.0073   -0.0001
          21    0.0094   -0.0070    0.0199   -0.0069   -0.0272    0.0092   -0.0071    0.0000
          22   -0.0853    0.0205   -0.0317    0.0125   -0.0110    0.0283   -0.0057   -0.0130
          23   -0.0838   -0.0047    0.0196   -0.0077   -0.1160    0.0044   -0.0416   -0.0108
          24   -0.0252    0.0492   -0.1018    0.0403    0.1763    0.0447    0.0591   -0.0028
          25    0.0961   -0.0593    0.0980   -0.0372   -0.0661    0.0502   -0.0061   -0.0097
          26   -0.0857    0.0010    0.0019   -0.0035   -0.0666   -0.0143   -0.0113    0.0045
          27    0.1072    0.0206   -0.0396    0.0156    0.1446    0.0257    0.0298   -0.0035
          28   -0.0036    0.0026   -0.0008    0.0008    0.0016   -0.0470    0.0018    0.0018
          29    0.0159   -0.0084    0.0052   -0.0025    0.0006   -0.0369    0.0017   -0.0028
          30    0.0055    0.0026    0.0008    0.0341   -0.0097   -0.0099    0.0004    0.0012
          31    0.0334   -0.0265    0.0084   -0.0239    0.0028    0.0253   -0.0212   -0.0116
          32    0.0348   -0.0304    0.0093   -0.0529    0.0119    0.0120   -0.0053    0.0054
          33    0.0082   -0.0168    0.0034   -0.0594    0.0151    0.0014    0.0166    0.0267
          34   -0.0013   -0.0017   -0.0003   -0.0194    0.0064   -0.0270    0.0077    0.0009
          35   -0.0341    0.0146   -0.0081   -0.0274    0.0163   -0.1601   -0.0152   -0.0127
          36   -0.0102   -0.0046   -0.0012   -0.0569    0.0174   -0.0391    0.0175   -0.0041
          37    0.0270    0.0036    0.0024    0.0677   -0.0209    0.0296    0.0129   -0.0075
          38    0.0217    0.0288   -0.0006    0.1515   -0.0413   -0.0179    0.0309    0.0425
          39    0.0028   -0.0034    0.0008    0.0007   -0.0000   -0.0045   -0.0034   -0.0043
          40    0.0088    0.0225    0.0063    0.0032   -0.0013   -0.0002   -0.0142   -0.0657
          41   -0.0050   -0.0239   -0.0081   -0.0010    0.0008    0.0005    0.0012    0.0504
          42   -0.0004   -0.0037   -0.0011   -0.0010   -0.0009    0.0006   -0.0022    0.0035
          43   -0.0060   -0.0259   -0.0084   -0.0003    0.0063    0.0007    0.0027    0.0724
          44    0.0083    0.0323    0.0085    0.0003   -0.0051    0.0000   -0.0037   -0.0766
          45    0.0022    0.0050    0.0053    0.0036    0.0019   -0.0016   -0.0008   -0.0113
          46    0.0041    0.0165    0.0061   -0.0018    0.0003    0.0014    0.0150    0.1350
          47   -0.0037   -0.0043    0.0028   -0.0026   -0.0015    0.0002    0.0102    0.0001
          48    0.0037    0.0024   -0.0058    0.0031    0.0003   -0.0015   -0.0007    0.0319
          49   -0.0022   -0.0001    0.0033   -0.0049   -0.0121   -0.0000    0.0326    0.0410
          50   -0.0026    0.0002    0.0095    0.0037    0.0158    0.0015   -0.0314    0.0031
          51    0.0011    0.0052   -0.0179   -0.0139   -0.0299    0.0027   -0.0225   -0.0041
          52    0.0026    0.0045    0.0020    0.0022    0.0021   -0.0003   -0.0033   -0.0163
          53    0.0015    0.0018    0.0014    0.0017    0.0021   -0.0002   -0.0017   -0.0026
          54    0.0013    0.0020    0.0006    0.0006    0.0007    0.0001   -0.0020   -0.0059
          55   -0.0155   -0.0250   -0.0098   -0.0039    0.0028   -0.0028    0.0217   -0.0980
          56    0.0086    0.0348   -0.0041    0.0083    0.0059    0.0017   -0.0666    0.0432
          57   -0.0093    0.0052    0.0164   -0.0156    0.0078    0.0027   -0.0145    0.0018
          58    0.0015    0.0053    0.0010    0.0008    0.0003   -0.0000   -0.0065   -0.0075
          59   -0.0057   -0.0142   -0.0038   -0.0019   -0.0011   -0.0011    0.0193   -0.0274
          60   -0.0022   -0.0037    0.0004   -0.0014   -0.0005   -0.0001    0.0062   -0.0112
          61   -0.0145   -0.0673   -0.0278    0.0121    0.0105    0.0028   -0.1189   -0.0475
          62   -0.0016    0.1457    0.0626   -0.0458   -0.0148   -0.0133    0.3051   -0.0335
          63    0.0575    0.0774   -0.0867    0.0745   -0.0277    0.0027    0.0813   -0.0446
          64    0.0073   -0.0122   -0.0051    0.0053    0.0073    0.0003   -0.0262   -0.0319
          65    0.0115   -0.0220   -0.0235   -0.0028   -0.0117   -0.0016    0.0295    0.0018
          66   -0.0075   -0.0213    0.0240    0.0136    0.0173   -0.0026    0.0238    0.0052
          67    0.0349    0.0390   -0.0921   -0.0425   -0.0671    0.0023    0.0170    0.0254
          68   -0.0645    0.0116    0.1351    0.0380    0.0725   -0.0001    0.0153    0.0095
          69   -0.0310    0.0231    0.0559    0.0081    0.0203    0.0002    0.0269    0.0263
          70   -0.0429    0.1065    0.0480   -0.0196   -0.0071    0.0075   -0.0524    0.0367
          71    0.0146   -0.0664   -0.0029    0.0197    0.0163   -0.0057    0.0336   -0.0170
          72    0.0432   -0.0565   -0.0823   -0.0090   -0.0278   -0.0012    0.0351   -0.0385
          73   -0.0181   -0.0159    0.0595    0.0265    0.0385   -0.0027    0.0008   -0.0046
          74   -0.0100    0.0741   -0.0122   -0.0331   -0.0413    0.0013    0.0432    0.0747
          75    0.0182    0.0649   -0.0809   -0.0517   -0.0701    0.0045    0.0076    0.0317


   Root No.      41        42        43        44        45        46        47        48

                41 A      42 A      43 A      44 A      45 A      46 A      47 A      48 A   

                1261.5    1268.4    1272.5    1274.9    1277.6    1296.9    1302.6    1327.3
  
           1   -0.0062    0.0038   -0.0087   -0.0014    0.0204    0.0044    0.0244   -0.0059
           2   -0.0082    0.0030   -0.0053    0.0035    0.0219    0.0039    0.0106   -0.0406
           3   -0.0026    0.0004   -0.0023    0.0004    0.0056   -0.0026    0.0076   -0.0069
           4   -0.0076    0.0036   -0.0081   -0.0014    0.0178    0.0035    0.0201    0.0024
           5   -0.0714    0.0364   -0.0830   -0.0164    0.1366   -0.0686   -0.1713    0.2824
           6   -0.0105    0.0130   -0.0216   -0.0050    0.0401    0.0092   -0.0214    0.0441
           7   -0.0066    0.0020   -0.0038    0.0004    0.0095   -0.0038   -0.0124    0.0171
           8   -0.0001    0.0016   -0.0019    0.0009    0.0070    0.0059    0.0060   -0.0243
           9   -0.0028    0.0012   -0.0018    0.0007    0.0067    0.0015    0.0017   -0.0058
          10   -0.0059    0.0007   -0.0016    0.0003    0.0021   -0.0068   -0.0174    0.0113
          11   -0.0347    0.0204   -0.0447    0.0005    0.1436    0.0378    0.1808    0.0380
          12   -0.0085    0.0053   -0.0127   -0.0007    0.0377    0.0085    0.0322    0.0193
          13   -0.0027   -0.0004   -0.0016    0.0008    0.0089   -0.0009    0.0104   -0.0018
          14    0.0034   -0.0019    0.0034   -0.0001   -0.0140   -0.0071   -0.0228   -0.0012
          15   -0.0009    0.0006   -0.0008    0.0007    0.0019   -0.0020   -0.0042   -0.0027
          16    0.0326   -0.0246    0.0317   -0.0151   -0.0850   -0.0024    0.1221    0.2167
          17    0.0268   -0.0181    0.0256   -0.0108   -0.0748   -0.0067    0.0590    0.1465
          18    0.0265   -0.0146    0.0245   -0.0099   -0.0703    0.0007    0.0801    0.1559
          19    0.0026    0.0009    0.0020   -0.0006   -0.0082    0.0032   -0.0195   -0.0194
          20    0.0026    0.0001    0.0014   -0.0017   -0.0041    0.0075    0.0113    0.0092
          21    0.0016   -0.0024    0.0029   -0.0005   -0.0054   -0.0059   -0.0036   -0.0025
          22    0.0007   -0.0024   -0.0004    0.0078   -0.0200   -0.0345   -0.0880   -0.0428
          23   -0.0003   -0.0146    0.0052    0.0065   -0.0159   -0.0620   -0.0441   -0.0105
          24    0.0057    0.0151   -0.0075    0.0046   -0.0208    0.0260   -0.0752   -0.0284
          25    0.0036   -0.0054    0.0025    0.0010   -0.0216   -0.0364   -0.0589   -0.0079
          26    0.0009   -0.0037    0.0063   -0.0034   -0.0001   -0.0023    0.0198    0.0028
          27    0.0038    0.0078   -0.0046    0.0016   -0.0052    0.0338    0.0006   -0.0027
          28   -0.0167   -0.0044    0.0118    0.0009   -0.0257    0.0029   -0.0016   -0.0059
          29    0.0205   -0.0042    0.0080    0.0006   -0.0180   -0.0009   -0.0092    0.0212
          30    0.0048    0.0067   -0.0134   -0.0154   -0.0130   -0.0029   -0.0011    0.0008
          31    0.0300    0.0464   -0.1001   -0.0969   -0.0429   -0.0266    0.0288   -0.0198
          32   -0.0731    0.0043   -0.0049   -0.0134   -0.0235   -0.0032    0.0112    0.0114
          33   -0.2181   -0.0431    0.1056    0.0832   -0.0013    0.0295   -0.0007    0.0199
          34    0.0350   -0.0245    0.0484    0.0437    0.0128    0.0110   -0.0046    0.0026
          35    0.0846    0.0209   -0.0490   -0.0651   -0.0762   -0.0213    0.0047   -0.0623
          36    0.1654   -0.0627    0.1172    0.1218    0.0758    0.0213   -0.0243    0.0193
          37    0.2599   -0.0267    0.0347    0.0555    0.0794    0.0011   -0.0135    0.0175
          38   -0.1502   -0.0338    0.0814    0.0594   -0.0095    0.0208   -0.0069    0.0011
          39    0.0267    0.0067   -0.0154   -0.0138   -0.0048   -0.0037    0.0007   -0.0002
          40   -0.0013    0.0034    0.0003    0.0030   -0.0007    0.0088   -0.0005    0.0006
          41    0.0012   -0.0017   -0.0003   -0.0005   -0.0002   -0.0018    0.0007    0.0003
          42    0.0002    0.0001   -0.0001    0.0005   -0.0002    0.0014    0.0002   -0.0000
          43    0.0007   -0.0077    0.0012   -0.0021    0.0015   -0.0237    0.0038   -0.0024
          44   -0.0010    0.0062   -0.0011    0.0024   -0.0013    0.0188   -0.0036    0.0014
          45   -0.0004    0.0002    0.0002   -0.0000    0.0005    0.0004    0.0010    0.0011
          46    0.0031   -0.0069    0.0000   -0.0066    0.0013   -0.0182    0.0003   -0.0017
          47    0.0003   -0.0005   -0.0001   -0.0009   -0.0000   -0.0004    0.0004   -0.0008
          48    0.0005   -0.0016    0.0002   -0.0012    0.0002   -0.0054   -0.0012    0.0008
          49    0.0048    0.0188   -0.0077   -0.0010   -0.0047    0.0787   -0.0131    0.0108
          50   -0.0002    0.0004    0.0030    0.0006    0.0006   -0.0045    0.0019   -0.0020
          51    0.0006   -0.0004    0.0005    0.0021   -0.0022    0.0010   -0.0010   -0.0036
          52   -0.0007   -0.0006    0.0009    0.0001    0.0004   -0.0049    0.0007   -0.0005
          53   -0.0003   -0.0012    0.0008   -0.0004    0.0004   -0.0058    0.0008   -0.0006
          54   -0.0003   -0.0008    0.0005    0.0000    0.0002   -0.0040    0.0004   -0.0006
          55   -0.0037   -0.0045   -0.0000    0.0011    0.0020   -0.0161    0.0041   -0.0026
          56    0.0006   -0.0018    0.0033    0.0031   -0.0011   -0.0129   -0.0001    0.0015
          57    0.0001    0.0004    0.0009    0.0009    0.0002   -0.0015    0.0022   -0.0023
          58   -0.0001    0.0004    0.0004    0.0008   -0.0002    0.0009   -0.0002    0.0002
          59   -0.0009    0.0006   -0.0014   -0.0003    0.0008    0.0022   -0.0000    0.0003
          60    0.0000    0.0003   -0.0005   -0.0001    0.0002    0.0011    0.0001   -0.0001
          61    0.0006    0.0168    0.0043    0.0132   -0.0055    0.0386   -0.0063    0.0071
          62   -0.0079   -0.0572   -0.0064   -0.0295    0.0176   -0.1427    0.0235   -0.0231
          63   -0.0074   -0.0251   -0.0047   -0.0103    0.0081   -0.0713    0.0081   -0.0050
          64   -0.0031   -0.0252   -0.0017   -0.0017    0.0023   -0.0251    0.0042   -0.0050
          65    0.0005   -0.0064    0.0028   -0.0163    0.0034    0.0181   -0.0047    0.0026
          66   -0.0001   -0.0062   -0.0137    0.0119   -0.0037    0.0118   -0.0012    0.0035
          67    0.0093    0.1943    0.0504    0.0479   -0.0115   -0.0587    0.0125    0.0010
          68    0.0032    0.0524    0.0737   -0.0894    0.0271    0.0177   -0.0053    0.0007
          69    0.0067    0.1274    0.0603   -0.0188    0.0072   -0.0128    0.0028    0.0025
          70    0.0028   -0.0544    0.0268   -0.0927    0.0193    0.0828   -0.0226    0.0047
          71   -0.0041   -0.0236   -0.0757    0.1093   -0.0286   -0.0281    0.0135    0.0005
          72    0.0037    0.1031    0.1291   -0.1325    0.0415   -0.0376   -0.0027   -0.0061
          73    0.0021    0.1045   -0.0116    0.0971   -0.0233   -0.0645    0.0191    0.0018
          74    0.0058    0.0925   -0.0763    0.1665   -0.0487    0.0024    0.0133    0.0078
          75   -0.0018   -0.1149   -0.0445   -0.0225    0.0002    0.0847   -0.0164   -0.0000


   Root No.      49        50        51        52        53        54        55        56

                49 A      50 A      51 A      52 A      53 A      54 A      55 A      56 A   

                1366.7    1385.1    1387.1    1435.6    1514.7    1660.0    1673.7    1884.0
  
           1    0.0159    0.0015   -0.0050    0.0203    0.0056    0.0075    0.0477   -0.0018
           2   -0.0208    0.0021    0.0042   -0.0499   -0.0303   -0.0165   -0.1218    0.0054
           3    0.0019    0.0019    0.0017   -0.0032   -0.0225    0.0019   -0.0140    0.0035
           4    0.0150    0.0025   -0.0082    0.0203    0.0062    0.0065    0.0447    0.0042
           5   -0.0493   -0.0146    0.0306    0.0142    0.0237   -0.0066    0.0252    0.0059
           6   -0.0129   -0.0068    0.0016    0.0077    0.0695   -0.0117    0.0379   -0.0022
           7   -0.0157   -0.0015    0.0058   -0.0400    0.0084   -0.0360   -0.0528    0.0016
           8   -0.0206    0.0015   -0.0048   -0.0330    0.0585   -0.0257    0.1288   -0.0048
           9   -0.0118   -0.0003    0.0004   -0.0273    0.0201   -0.0228    0.0123   -0.0011
          10   -0.0264   -0.0013    0.0059   -0.0443   -0.0019   -0.0097   -0.0318    0.0024
          11    0.2079    0.0014   -0.0266    0.1259    0.0074   -0.0775   -0.0750    0.0009
          12    0.0390   -0.0001   -0.0044    0.0179    0.0197   -0.0284   -0.0137    0.0009
          13   -0.0210    0.0020    0.0028   -0.0146   -0.0514    0.1246    0.0407    0.0013
          14    0.0158   -0.0002   -0.0007    0.0602   -0.0417    0.0519   -0.0200    0.0015
          15   -0.0017    0.0012    0.0009    0.0096   -0.0354    0.0753    0.0130    0.0012
          16   -0.0067   -0.0063    0.0179   -0.0951    0.0014   -0.0217   -0.0584    0.0005
          17    0.0242   -0.0049    0.0098   -0.0091    0.0011   -0.0407   -0.0615    0.0022
          18    0.0008   -0.0037    0.0115   -0.0398    0.0173   -0.0391   -0.0463    0.0013
          19   -0.0108   -0.0008   -0.0039    0.0613    0.0341   -0.0934   -0.0366   -0.0009
          20   -0.0043   -0.0007   -0.0003   -0.0076    0.0203   -0.0131    0.0020    0.0017
          21   -0.0051    0.0004    0.0002    0.0211   -0.0044   -0.0415   -0.0179   -0.0031
          22    0.1579   -0.0024   -0.0051   -0.0490   -0.0033   -0.0127   -0.0144    0.0033
          23    0.1399    0.0002    0.0012   -0.0937   -0.0532    0.0634    0.0126    0.0072
          24    0.1455   -0.0054   -0.0083   -0.0609    0.0539   -0.0120    0.0113    0.0046
          25    0.2085   -0.0048   -0.0020   -0.1648    0.0237   -0.0281    0.0121    0.0029
          26   -0.0936    0.0018    0.0015    0.1043   -0.0280   -0.0246   -0.0237   -0.0119
          27    0.0038   -0.0008   -0.0031   -0.0017    0.0604   -0.0272   -0.0126    0.0034
          28   -0.0015    0.0068   -0.0199   -0.0026   -0.0006    0.0003   -0.0009   -0.0002
          29    0.0065    0.0123   -0.0398    0.0148    0.0017    0.0059    0.0159   -0.0008
          30   -0.0006    0.0029   -0.0114    0.0014    0.0029    0.0017    0.0019   -0.0005
          31    0.0273   -0.0569    0.1592    0.0403    0.0190    0.0067    0.0481   -0.0021
          32    0.0289   -0.0415    0.1172    0.0420    0.0097    0.0069    0.0345   -0.0191
          33    0.0210   -0.0272    0.0799    0.0280    0.0148    0.0013    0.0398   -0.0040
          34    0.0030    0.0035   -0.0093    0.0006   -0.0021   -0.0000   -0.0005    0.0001
          35   -0.0007   -0.0703    0.2051    0.0004    0.0092   -0.0008   -0.0017    0.0022
          36    0.0070   -0.0249    0.0747    0.0080    0.0056   -0.0025    0.0092   -0.0043
          37    0.0111   -0.0311    0.0851    0.0173    0.0133    0.0014    0.0168   -0.0054
          38    0.0133   -0.0541    0.1498    0.0220    0.0280    0.0018    0.0254   -0.0006
          39   -0.0014    0.0092   -0.0274   -0.0029   -0.0063    0.0019   -0.0123    0.0018
          40   -0.0002   -0.0003    0.0007    0.0002    0.0010    0.0021   -0.0010    0.0047
          41   -0.0006   -0.0003    0.0000    0.0004   -0.0032   -0.0034    0.0025    0.0032
          42   -0.0002   -0.0003    0.0001    0.0005    0.0009   -0.0007    0.0007    0.0024
          43   -0.0014    0.0008   -0.0009    0.0019    0.0033   -0.0022    0.0021    0.1754
          44    0.0015   -0.0008    0.0009   -0.0013   -0.0050   -0.0041    0.0015    0.1476
          45   -0.0016    0.0002    0.0007   -0.0008   -0.0080   -0.0017    0.0018    0.1140
          46    0.0006   -0.0003   -0.0023    0.0004    0.0076    0.0045   -0.0037   -0.0610
          47    0.0003   -0.0009   -0.0006    0.0013    0.0100    0.0058   -0.0006    0.2144
          48   -0.0000    0.0002   -0.0006   -0.0004   -0.0005    0.0028   -0.0021    0.0604
          49    0.0042   -0.0088    0.0008   -0.0065   -0.0135    0.0126   -0.0050   -0.0122
          50   -0.0005   -0.0052   -0.0036    0.0053    0.0773    0.0994   -0.0513   -0.0139
          51    0.0014   -0.0033   -0.0037    0.0068    0.0641    0.0439   -0.0259   -0.0074
          52    0.0001    0.0015    0.0002   -0.0002    0.0001   -0.0001   -0.0004   -0.1127
          53    0.0001    0.0010   -0.0001    0.0001    0.0021    0.0016   -0.0012   -0.1076
          54    0.0004    0.0008   -0.0001   -0.0000    0.0019    0.0006   -0.0006   -0.0789
          55   -0.0017    0.0041    0.0017   -0.0006   -0.0158   -0.0211    0.0116    0.0151
          56    0.0006    0.0059    0.0023   -0.0030   -0.0602   -0.0755    0.0419   -0.0210
          57    0.0003    0.0015    0.0002   -0.0001   -0.0102   -0.0344    0.0227   -0.0076
          58    0.0000    0.0002    0.0000    0.0000   -0.0011   -0.0015    0.0012    0.0215
          59   -0.0004    0.0006    0.0003   -0.0013   -0.0049   -0.0008   -0.0015   -0.1447
          60   -0.0001    0.0002    0.0000   -0.0003   -0.0010   -0.0007   -0.0001   -0.0454
          61    0.0018    0.0010    0.0023   -0.0024   -0.0390   -0.0484    0.0303   -0.0146
          62   -0.0078    0.0095   -0.0019    0.0033    0.0236   -0.0005   -0.0052   -0.0020
          63   -0.0036    0.0103   -0.0002   -0.0036   -0.0406   -0.0022   -0.0071    0.0127
          64   -0.0022   -0.0249   -0.0093    0.0022    0.0116    0.0055   -0.0034   -0.0021
          65    0.0023    0.0286    0.0102   -0.0023   -0.0181   -0.0155    0.0083    0.0039
          66    0.0003    0.0256    0.0096   -0.0016   -0.0184   -0.0102    0.0054    0.0019
          67    0.0025    0.0887    0.0257    0.0050    0.0294    0.0091   -0.0043    0.0056
          68   -0.0039   -0.1834   -0.0553   -0.0112   -0.0440   -0.0104    0.0079   -0.0025
          69   -0.0009   -0.0512   -0.0150   -0.0039   -0.0118    0.0020   -0.0001    0.0039
          70    0.0132    0.1843    0.0575    0.0051    0.0642    0.0536   -0.0272    0.0038
          71   -0.0087   -0.0585   -0.0174    0.0007   -0.0226   -0.0151    0.0061   -0.0087
          72    0.0023   -0.0887   -0.0281   -0.0090   -0.0385   -0.0273    0.0160    0.0013
          73   -0.0042    0.0537    0.0166    0.0059    0.0148    0.0093   -0.0065   -0.0008
          74   -0.0086   -0.1096   -0.0335   -0.0007   -0.0091   -0.0027    0.0016   -0.0007
          75   -0.0016   -0.1824   -0.0567   -0.0079   -0.0286   -0.0212    0.0112   -0.0075


   Root No.      57        58        59        60        61        62        63        64

                57 A      58 A      59 A      60 A      61 A      62 A      63 A      64 A   

                1949.0    2648.6    2659.9    2666.1    2668.6    2685.8    2705.4    2745.0
  
           1   -0.0013   -0.0030    0.0001    0.0061    0.0007    0.0002   -0.0396   -0.0049
           2    0.0055   -0.0018    0.0001    0.0010   -0.0000   -0.0002    0.0030    0.0017
           3    0.0037    0.0017   -0.0000    0.0018    0.0001    0.0000    0.0005    0.0001
           4    0.0042    0.0580   -0.0026   -0.1008   -0.0106   -0.0030    0.5331    0.0510
           5    0.0053   -0.0024    0.0001    0.0028    0.0002   -0.0015   -0.0052   -0.0011
           6    0.0015    0.0003    0.0001    0.0002   -0.0002   -0.0009    0.0042   -0.0003
           7    0.0014   -0.0006   -0.0000    0.0001    0.0000   -0.0007    0.0063   -0.0113
           8   -0.0046    0.0008   -0.0001   -0.0007   -0.0000   -0.0009   -0.0001   -0.0027
           9   -0.0016    0.0002    0.0000   -0.0002    0.0001   -0.0004    0.0026   -0.0045
          10   -0.0019    0.0003    0.0008    0.0081   -0.0002    0.0062   -0.1155    0.1654
          11    0.0001   -0.0001   -0.0001    0.0003   -0.0001   -0.0003   -0.0019   -0.0036
          12    0.0009   -0.0000    0.0002    0.0025   -0.0005    0.0018   -0.0388    0.0541
          13    0.0034   -0.0001    0.0002   -0.0001    0.0004    0.0042    0.0002    0.0191
          14    0.0018    0.0000   -0.0001    0.0001   -0.0003   -0.0047    0.0014   -0.0291
          15    0.0016   -0.0000    0.0001   -0.0000    0.0002    0.0008    0.0006   -0.0028
          16   -0.0025    0.0004   -0.0006    0.0014   -0.0037   -0.0698    0.0083   -0.2738
          17    0.0026   -0.0006    0.0007   -0.0018    0.0061    0.1010   -0.0114    0.3762
          18    0.0024   -0.0002   -0.0001   -0.0001   -0.0002    0.0079   -0.0006    0.0236
          19   -0.0027   -0.0000   -0.0001    0.0002   -0.0003   -0.0176    0.0006    0.0001
          20   -0.0000    0.0001   -0.0012   -0.0006    0.0018    0.0379    0.0009   -0.0111
          21   -0.0017    0.0001   -0.0007   -0.0003    0.0010    0.0216    0.0004   -0.0056
          22   -0.0052    0.0014   -0.0065   -0.0051    0.0104    0.3522   -0.0028   -0.0243
          23   -0.0112   -0.0007    0.0040    0.0033   -0.0068   -0.2446    0.0044    0.0102
          24    0.0057   -0.0005    0.0022    0.0016   -0.0034   -0.1272    0.0026    0.0043
          25   -0.0042   -0.0002    0.0051    0.0019   -0.0071   -0.1186   -0.0064    0.0503
          26    0.0071   -0.0004    0.0112    0.0037   -0.0155   -0.2348   -0.0148    0.1120
          27   -0.0002   -0.0004    0.0074    0.0023   -0.0095   -0.1497   -0.0090    0.0711
          28   -0.0009    0.0235   -0.0009   -0.0289   -0.0021   -0.0006   -0.0103   -0.0007
          29   -0.0015   -0.0239    0.0004    0.0063    0.0006    0.0001    0.0035    0.0006
          30   -0.0012    0.0319    0.0002    0.0271    0.0014    0.0004    0.0029    0.0003
          31    0.0011   -0.2069    0.0028    0.0314    0.0038    0.0005    0.0408    0.0054
          32   -0.0157    0.3758   -0.0056   -0.0770   -0.0082   -0.0009   -0.0781   -0.0101
          33    0.0000   -0.1625    0.0027    0.0507    0.0046    0.0005    0.0381    0.0046
          34   -0.0006   -0.1031    0.0090    0.3456    0.0232    0.0072    0.0566   -0.0011
          35    0.0037   -0.0221    0.0010    0.0380    0.0025    0.0007    0.0115    0.0006
          36   -0.0009    0.0486   -0.0026   -0.0882   -0.0062   -0.0020   -0.0142    0.0006
          37   -0.0033    0.0145   -0.0005   -0.0120   -0.0009   -0.0001   -0.0037   -0.0000
          38    0.0010   -0.0548   -0.0002   -0.0421   -0.0023   -0.0003   -0.0079   -0.0013
          39   -0.0007   -0.2884   -0.0025   -0.3059   -0.0167   -0.0026   -0.0726   -0.0104
          40   -0.0047   -0.0001    0.0000    0.0000   -0.0001   -0.0001   -0.0001   -0.0000
          41    0.0046   -0.0002    0.0001    0.0000   -0.0001    0.0001    0.0001   -0.0001
          42    0.0009   -0.0001    0.0000   -0.0000   -0.0001    0.0001    0.0001   -0.0000
          43   -0.1477   -0.0000   -0.0002   -0.0000    0.0007    0.0001    0.0002    0.0001
          44   -0.1464    0.0002   -0.0002   -0.0000    0.0003   -0.0005   -0.0002    0.0002
          45   -0.1042    0.0001   -0.0001   -0.0000    0.0002   -0.0001   -0.0001    0.0002
          46   -0.0418   -0.0001    0.0000   -0.0000    0.0002    0.0003    0.0007    0.0003
          47    0.2449    0.0015   -0.0002   -0.0002   -0.0001   -0.0000   -0.0009   -0.0003
          48    0.0765    0.0005   -0.0000   -0.0001    0.0000   -0.0001   -0.0002   -0.0001
          49    0.0195    0.0000    0.0013    0.0001   -0.0020   -0.0002   -0.0001   -0.0001
          50   -0.0281    0.0001    0.0019    0.0001   -0.0009    0.0001    0.0001   -0.0001
          51   -0.0078   -0.0001   -0.0017    0.0001   -0.0021    0.0006   -0.0000    0.0003
          52    0.0916   -0.0000    0.0000    0.0000   -0.0001    0.0000   -0.0000   -0.0001
          53    0.0872   -0.0001    0.0001    0.0000   -0.0002    0.0001    0.0000   -0.0001
          54    0.0640   -0.0000    0.0001    0.0000   -0.0001    0.0001    0.0000   -0.0001
          55    0.0303    0.0000   -0.0006    0.0007    0.0001   -0.0003   -0.0011   -0.0020
          56   -0.0020   -0.0004   -0.0003    0.0002    0.0007   -0.0000   -0.0000   -0.0003
          57    0.0046    0.0000   -0.0002   -0.0001    0.0001   -0.0001    0.0004   -0.0003
          58    0.0213    0.0000   -0.0000   -0.0000   -0.0000   -0.0000   -0.0001   -0.0000
          59   -0.1479   -0.0007    0.0001    0.0001    0.0000    0.0000    0.0004    0.0001
          60   -0.0466   -0.0003    0.0000    0.0001   -0.0000    0.0000    0.0002    0.0000
          61    0.0148    0.0014    0.0063   -0.0084   -0.0029    0.0005    0.0085    0.0217
          62    0.0117    0.0009    0.0021   -0.0034   -0.0011    0.0002    0.0032    0.0080
          63    0.0138   -0.0005    0.0005   -0.0006    0.0002    0.0002    0.0006    0.0013
          64   -0.0033   -0.0002    0.0156    0.0016   -0.0326    0.0020   -0.0002   -0.0005
          65    0.0036    0.0004    0.0370   -0.0003   -0.0060    0.0012    0.0000   -0.0001
          66    0.0029   -0.0006   -0.0241    0.0020   -0.0295    0.0005   -0.0002    0.0004
          67   -0.0050   -0.0026   -0.1805    0.0060   -0.0576   -0.0021   -0.0000    0.0042
          68    0.0020   -0.0025   -0.1984    0.0058   -0.0501   -0.0031    0.0002    0.0054
          69   -0.0002    0.0047    0.3739   -0.0095    0.0699    0.0066   -0.0001   -0.0090
          70   -0.0099   -0.0002   -0.1393   -0.0060    0.1526   -0.0098    0.0003   -0.0025
          71    0.0094    0.0001   -0.2299   -0.0116    0.2819   -0.0176    0.0007   -0.0032
          72    0.0026   -0.0004   -0.1230   -0.0041    0.1126   -0.0074    0.0004   -0.0014
          73    0.0006    0.0051    0.1207   -0.0196    0.3111   -0.0123    0.0027    0.0054
          74    0.0033   -0.0022   -0.0335    0.0094   -0.1540    0.0065   -0.0012   -0.0023
          75    0.0083    0.0030    0.0577   -0.0118    0.1907   -0.0079    0.0020    0.0045


   Root No.      65        66        67        68        69

                65 A      66 A      67 A      68 A      69 A   

                2755.4    2761.1    2770.3    2773.9    2778.0
  
           1    0.0006   -0.0063    0.0024   -0.0048   -0.0014
           2   -0.0011    0.0021    0.0021   -0.0033   -0.0006
           3   -0.0002   -0.0002    0.0013   -0.0011   -0.0002
           4   -0.0014    0.0673   -0.0239    0.0410    0.0104
           5    0.0001   -0.0039   -0.0004    0.0004   -0.0000
           6    0.0003   -0.0001   -0.0008    0.0006    0.0002
           7    0.0062   -0.0265    0.0008   -0.0058   -0.0031
           8    0.0014    0.0016   -0.0008    0.0010    0.0001
           9    0.0025   -0.0083    0.0001   -0.0016   -0.0010
          10   -0.0817    0.3511   -0.0068    0.0733    0.0394
          11    0.0018   -0.0056    0.0008   -0.0018   -0.0008
          12   -0.0270    0.1162   -0.0024    0.0241    0.0129
          13   -0.0048   -0.0095   -0.0004   -0.0017   -0.0010
          14    0.0029    0.0079    0.0014    0.0012    0.0015
          15   -0.0007   -0.0008    0.0003   -0.0002    0.0002
          16    0.0411    0.0881    0.0113    0.0143    0.0140
          17   -0.0540   -0.1217   -0.0155   -0.0198   -0.0192
          18   -0.0027   -0.0078   -0.0007   -0.0012   -0.0014
          19   -0.0273   -0.0037   -0.0012    0.0004    0.0009
          20   -0.0105    0.0014    0.0003    0.0005    0.0012
          21   -0.0093    0.0004   -0.0007    0.0004    0.0004
          22    0.2157    0.0425    0.0082   -0.0014   -0.0058
          23   -0.1691   -0.0307   -0.0066    0.0014    0.0048
          24   -0.0903   -0.0158   -0.0028    0.0008    0.0030
          25    0.1274    0.0087    0.0026   -0.0025   -0.0073
          26    0.3129    0.0233    0.0069   -0.0060   -0.0170
          27    0.1949    0.0146    0.0046   -0.0038   -0.0101
          28   -0.0009    0.0015    0.0035   -0.0081   -0.0022
[...]
 FREQUENCY          1027.13         C 22 -- H 24         +10.8% ( 45.6%)     20.0%
 TRANSITION DIPOLE   0.3654         C 16 -- C 19          +7.9% ( 39.1%)     42.6%
 TRAVEL (Ang.)       0.4857         C 19 -- H 21          +7.5% ( 37.9%)     36.2%
 REDUCED MASS        0.2783         C  5 -- H  6          +7.0% ( 36.8%)      0.8%
 EFFECTIVE MASS      5.0284
 FORCE CONSTANT      0.1730

 VIBRATION         33   33A           ATOM PAIR      ENERGY CONTRIBUTION    RADIAL
 FREQUENCY          1038.81         C  7 -- H  9         +20.1% ( 60.1%)     11.5%
 TRANSITION DIPOLE   0.6023         C  7 -- H  8         +14.1% ( 50.3%)      7.8%
 TRAVEL (Ang.)       0.4828         C  5 -- C  7          +5.9% ( 32.6%)      0.6%
 REDUCED MASS        0.2785         C  3 -- H  4          +5.8% ( 32.2%)      2.3%
 EFFECTIVE MASS      4.5174
 FORCE CONSTANT      0.1771

 VIBRATION         34   34A           ATOM PAIR      ENERGY CONTRIBUTION    RADIAL
 FREQUENCY          1053.04         C 19 -- H 21         +13.8% ( 54.2%)     17.9%
 TRANSITION DIPOLE   0.9447         O 14 -- C 15         +12.0% ( 50.5%)     82.3%
 TRAVEL (Ang.)       0.2913         C 16 -- C 19          +9.6% ( 45.2%)     99.1%
 REDUCED MASS        0.7547         C 22 -- H 24          +8.6% ( 42.7%)     34.4%
 EFFECTIVE MASS      7.4595
 FORCE CONSTANT      0.4931

 VIBRATION         35   35A           ATOM PAIR      ENERGY CONTRIBUTION    RADIAL
 FREQUENCY          1056.65         C 22 -- H 23         +22.0% ( 58.6%)     17.4%
 TRANSITION DIPOLE   1.0874         C 22 -- H 25         +12.0% ( 43.3%)      6.3%
 TRAVEL (Ang.)       0.4600         C 22 -- H 24         +11.6% ( 42.6%)      3.7%
 REDUCED MASS        0.3016         C  7 -- H  8          +9.4% ( 38.4%)      4.8%
 EFFECTIVE MASS      4.0821
 FORCE CONSTANT      0.1984

 VIBRATION         36   36A           ATOM PAIR      ENERGY CONTRIBUTION    RADIAL
 FREQUENCY          1084.93         C 10 -- H 13         +19.7% ( 53.0%)     22.8%
 TRANSITION DIPOLE   0.3248         C  1 -- H  2         +15.3% ( 46.7%)      0.0%
 TRAVEL (Ang.)       0.3508         C 10 -- H 11         +10.9% ( 39.3%)      6.2%
 REDUCED MASS        0.5050         C  1 -- C 10         +10.1% ( 38.0%)      5.2%
 EFFECTIVE MASS      4.3123
 FORCE CONSTANT      0.3502

 VIBRATION         37   37A           ATOM PAIR      ENERGY CONTRIBUTION    RADIAL
 FREQUENCY          1134.12         C  7 -- H  8         +24.5% ( 53.1%)      0.5%
 TRANSITION DIPOLE   0.5569         C  7 -- H  9         +16.8% ( 43.9%)      0.2%
 TRAVEL (Ang.)       0.4008         C 22 -- H 23          +8.8% ( 31.8%)     11.0%
 REDUCED MASS        0.3701         C 22 -- H 25          +7.2% ( 28.9%)     18.5%
 EFFECTIVE MASS      3.5545
 FORCE CONSTANT      0.2805

 VIBRATION         38   38A           ATOM PAIR      ENERGY CONTRIBUTION    RADIAL
 FREQUENCY          1170.21         C  1 -- C 10         +20.4% ( 68.9%)     72.5%
 TRANSITION DIPOLE   0.4677         C  1 -- C  3         +14.4% ( 58.0%)      6.6%
 TRAVEL (Ang.)       0.2075         C  3 -- H  4         +10.9% ( 50.4%)     26.9%
 REDUCED MASS        1.3385         C 10 -- H 12          +8.6% ( 44.7%)     85.2%
 EFFECTIVE MASS      8.1380
 FORCE CONSTANT      1.0799

 VIBRATION         39   39A           ATOM PAIR      ENERGY CONTRIBUTION    RADIAL
 FREQUENCY          1222.95         C 19 -- H 21         +32.4% ( 82.4%)      0.0%
 TRANSITION DIPOLE   0.4793         C 17 -- C 22         +12.5% ( 51.1%)     99.5%
 TRAVEL (Ang.)       0.2245         C 17 -- C 19         +10.5% ( 46.9%)     66.9%
 REDUCED MASS        1.0945         C 16 -- C 19          +9.7% ( 45.0%)     45.5%
 EFFECTIVE MASS      6.3458
 FORCE CONSTANT      0.9644

 VIBRATION         40   40A           ATOM PAIR      ENERGY CONTRIBUTION    RADIAL
 FREQUENCY          1227.70         C 16 -- C 19         +18.9% ( 68.8%)     77.0%
 TRANSITION DIPOLE   4.0085         C 15 -- C 16         +15.3% ( 61.8%)     90.6%
 TRAVEL (Ang.)       0.1421         O 14 -- C 16         +13.9% ( 59.0%)     44.6%
 REDUCED MASS        2.7202         O 14 -- C 15         +11.1% ( 52.6%)     71.9%
 EFFECTIVE MASS     12.4889
 FORCE CONSTANT      2.4156

 VIBRATION         41   41A           ATOM PAIR      ENERGY CONTRIBUTION    RADIAL
 FREQUENCY          1261.45         C 10 -- H 13         +40.6% ( 55.9%)      0.3%
 TRANSITION DIPOLE   0.6252         C 10 -- H 11         +27.0% ( 45.6%)      5.1%
 TRAVEL (Ang.)       0.4015         C 10 -- H 12         +17.4% ( 36.6%)      7.5%
 REDUCED MASS        0.3316         C  1 -- C 10          +4.4% ( 18.5%)     49.9%
 EFFECTIVE MASS      1.5654
 FORCE CONSTANT      0.3109

 VIBRATION         42   42A           ATOM PAIR      ENERGY CONTRIBUTION    RADIAL
 FREQUENCY          1268.44         C 22 -- H 23         +34.9% ( 55.8%)      0.5%
 TRANSITION DIPOLE   0.3599         C 22 -- H 25         +21.9% ( 44.2%)      6.4%
 TRAVEL (Ang.)       0.4237         C 22 -- H 24         +10.0% ( 29.8%)     20.5%
 REDUCED MASS        0.2961         C 17 -- C 22          +7.3% ( 25.5%)     16.0%
 EFFECTIVE MASS      2.1550
 FORCE CONSTANT      0.2807

 VIBRATION         43   43A           ATOM PAIR      ENERGY CONTRIBUTION    RADIAL
 FREQUENCY          1272.46         C 10 -- H 11         +19.2% ( 40.2%)      0.7%
 TRANSITION DIPOLE   0.7070         C 22 -- H 24         +18.1% ( 39.0%)      0.3%
 TRAVEL (Ang.)       0.5765         C 10 -- H 12         +15.2% ( 35.7%)      5.9%
 REDUCED MASS        0.1594         C 22 -- H 23          +9.4% ( 28.1%)      6.1%
 EFFECTIVE MASS      1.8315
 FORCE CONSTANT      0.1521

 VIBRATION         44   44A           ATOM PAIR      ENERGY CONTRIBUTION    RADIAL
 FREQUENCY          1274.94         C 22 -- H 24         +26.6% ( 45.0%)      1.1%
 TRANSITION DIPOLE   0.2811         C 22 -- H 25         +25.5% ( 44.0%)      1.4%
 TRAVEL (Ang.)       0.5053         C 10 -- H 12         +14.5% ( 33.2%)      0.6%
 REDUCED MASS        0.2071         C 10 -- H 11         +11.9% ( 30.1%)      1.0%
 EFFECTIVE MASS      1.5509
 FORCE CONSTANT      0.1984

 VIBRATION         45   45A           ATOM PAIR      ENERGY CONTRIBUTION    RADIAL
 FREQUENCY          1277.57         C  1 -- C 10         +14.5% ( 44.2%)     86.1%
 TRANSITION DIPOLE   0.4924         C  1 -- H  2         +14.0% ( 43.4%)     39.9%
 TRAVEL (Ang.)       0.3827         C  3 -- H  4         +13.3% ( 42.3%)      4.3%
 REDUCED MASS        0.3605         C  5 -- H  6         +11.6% ( 39.6%)      9.0%
 EFFECTIVE MASS      3.9611
 FORCE CONSTANT      0.3466

 VIBRATION         46   46A           ATOM PAIR      ENERGY CONTRIBUTION    RADIAL
 FREQUENCY          1296.89         C 17 -- C 22         +19.2% ( 61.8%)     55.2%
 TRANSITION DIPOLE   0.6817         C 15 -- C 17         +17.6% ( 59.3%)     93.0%
 TRAVEL (Ang.)       0.1559         C 17 -- C 19         +16.1% ( 56.6%)     14.3%
 REDUCED MASS        2.1403         C  7 -- C 17         +13.7% ( 52.2%)      0.3%
 EFFECTIVE MASS      7.5303
 FORCE CONSTANT      2.1210

 VIBRATION         47   47A           ATOM PAIR      ENERGY CONTRIBUTION    RADIAL
 FREQUENCY          1302.64         C  1 -- H  2         +19.0% ( 48.8%)      8.3%
 TRANSITION DIPOLE   0.1675         C  3 -- H  4         +18.2% ( 47.7%)      3.5%
 TRAVEL (Ang.)       0.4452         C  5 -- H  6         +15.8% ( 44.5%)     12.2%
 REDUCED MASS        0.2612         C  7 -- H  8          +8.3% ( 32.2%)     24.4%
 EFFECTIVE MASS      3.2734
 FORCE CONSTANT      0.2611

 VIBRATION         48   48A           ATOM PAIR      ENERGY CONTRIBUTION    RADIAL
 FREQUENCY          1327.32         C  1 -- H  2         +33.3% ( 66.6%)      0.3%
 TRANSITION DIPOLE   0.1303         C  5 -- H  6         +27.6% ( 60.6%)      0.0%
 TRAVEL (Ang.)       0.3449         C  1 -- C 10          +8.5% ( 33.6%)     79.1%
 REDUCED MASS        0.4271         C  1 -- C 19          +5.9% ( 28.1%)      0.3%
 EFFECTIVE MASS      2.7647
 FORCE CONSTANT      0.4433

 VIBRATION         49   49A           ATOM PAIR      ENERGY CONTRIBUTION    RADIAL
 FREQUENCY          1366.71         C  3 -- H  4         +24.6% ( 50.3%)      2.7%
 TRANSITION DIPOLE   0.3961         C  7 -- H  8         +24.3% ( 50.0%)      0.0%
 TRAVEL (Ang.)       0.4031         C  7 -- H  9         +19.0% ( 44.2%)      1.0%
 REDUCED MASS        0.3036         C  3 -- C  5          +7.6% ( 28.0%)     72.0%
 EFFECTIVE MASS      2.3517
 FORCE CONSTANT      0.3341

 VIBRATION         50   50A           ATOM PAIR      ENERGY CONTRIBUTION    RADIAL
 FREQUENCY          1385.10         C 22 -- H 25         +27.5% ( 54.0%)      1.3%
 TRANSITION DIPOLE   1.1005         C 22 -- H 24         +26.5% ( 53.0%)      2.0%
 TRAVEL (Ang.)       0.3414         C 22 -- H 23         +25.9% ( 52.3%)      1.4%
 REDUCED MASS        0.4177         C 17 -- C 22          +7.7% ( 28.5%)     93.1%
 EFFECTIVE MASS      2.3839
 FORCE CONSTANT      0.4721

 VIBRATION         51   51A           ATOM PAIR      ENERGY CONTRIBUTION    RADIAL
 FREQUENCY          1387.10         C 10 -- H 12         +28.6% ( 56.1%)      1.9%
 TRANSITION DIPOLE   0.9058         C 10 -- H 11         +28.1% ( 55.6%)      1.7%
 TRAVEL (Ang.)       0.3264         C 10 -- H 13         +20.9% ( 47.9%)      1.6%
 REDUCED MASS        0.4564         C  1 -- C 10          +8.1% ( 29.8%)     98.4%
 EFFECTIVE MASS      2.5756
 FORCE CONSTANT      0.5173

 VIBRATION         52   52A           ATOM PAIR      ENERGY CONTRIBUTION    RADIAL
 FREQUENCY          1435.57         C  3 -- C  5         +15.2% ( 55.6%)     97.6%
 TRANSITION DIPOLE   0.4718         C  5 -- C  7         +14.7% ( 54.6%)     50.0%
 TRAVEL (Ang.)       0.1876         C  7 -- H  9         +12.8% ( 51.1%)      1.7%
 REDUCED MASS        1.3350         C  1 -- C  3         +10.1% ( 45.4%)     45.9%
 EFFECTIVE MASS      8.3853
 FORCE CONSTANT      1.6210

 VIBRATION         53   53A           ATOM PAIR      ENERGY CONTRIBUTION    RADIAL
 FREQUENCY          1514.70         C 17 -- C 19         +17.6% ( 68.2%)     91.8%
 TRANSITION DIPOLE   1.6464         C 17 -- C 22         +11.3% ( 54.7%)     83.7%
 TRAVEL (Ang.)       0.1419         C  3 -- C  5         +10.8% ( 53.6%)     98.9%
 REDUCED MASS        2.2120         C  7 -- C 17         +10.3% ( 52.3%)      7.9%
 EFFECTIVE MASS     10.8628
 FORCE CONSTANT      2.9901

 VIBRATION         54   54A           ATOM PAIR      ENERGY CONTRIBUTION    RADIAL
 FREQUENCY          1660.01         C  5 -- C  7         +22.3% ( 71.4%)     93.8%
 TRANSITION DIPOLE   1.3875         C  3 -- C  5         +13.7% ( 55.9%)     65.7%
 TRAVEL (Ang.)       0.1156         C 17 -- C 19         +12.0% ( 52.3%)     98.5%
 REDUCED MASS        3.0413         C  5 -- H  6         +11.0% ( 50.1%)      1.5%
 EFFECTIVE MASS     11.6526         C  7 -- C 17         +10.4% ( 48.7%)      2.4%
 FORCE CONSTANT      4.9377

 VIBRATION         55   55A           ATOM PAIR      ENERGY CONTRIBUTION    RADIAL
 FREQUENCY          1673.69         C  1 -- C  3         +29.5% ( 82.6%)     96.6%
 TRANSITION DIPOLE   1.9829         C  3 -- C  5         +11.9% ( 52.4%)     25.2%
 TRAVEL (Ang.)       0.1077         C  1 -- C 19         +10.7% ( 49.7%)      2.0%
 REDUCED MASS        3.4730         C  3 -- H  4         +10.5% ( 49.2%)      5.8%
 EFFECTIVE MASS     11.4141
 FORCE CONSTANT      5.7320

 VIBRATION         56   56A           ATOM PAIR      ENERGY CONTRIBUTION    RADIAL
 FREQUENCY          1884.04         C 15 -- O 18         +24.6% ( 75.2%)     99.9%
 TRANSITION DIPOLE   7.0964         C 16 -- O 20         +19.6% ( 67.2%)     99.3%
 TRAVEL (Ang.)       0.1017         C 15 -- C 16         +17.5% ( 63.5%)      2.2%
 REDUCED MASS        3.4615         C 15 -- C 17         +10.4% ( 48.9%)     49.5%
 EFFECTIVE MASS     13.4380         O 14 -- C 15         +10.2% ( 48.5%)     21.0%
 FORCE CONSTANT      7.2392

 VIBRATION         57   57A           ATOM PAIR      ENERGY CONTRIBUTION    RADIAL
 FREQUENCY          1949.01         C 16 -- O 20         +22.7% ( 72.4%)    100.0%
 TRANSITION DIPOLE   3.1432         C 15 -- C 16         +20.2% ( 68.1%)     99.5%
 TRAVEL (Ang.)       0.0992         C 15 -- O 18         +18.3% ( 64.9%)    100.0%
 REDUCED MASS        3.5178         C 16 -- C 19         +10.8% ( 50.0%)     61.8%
 EFFECTIVE MASS     13.2410         O 14 -- C 16         +10.5% ( 49.2%)     21.7%
 FORCE CONSTANT      7.8733

 VIBRATION         58   58A           ATOM PAIR      ENERGY CONTRIBUTION    RADIAL
 FREQUENCY          2648.59         C 10 -- H 11         +65.4% ( 83.5%)     99.5%
 TRANSITION DIPOLE   0.6977         C 10 -- H 13         +27.7% ( 54.3%)     93.3%
 TRAVEL (Ang.)       0.2209         C 10 -- H 12          +5.0% ( 23.0%)     57.9%
 REDUCED MASS        0.5219         C  1 -- H  2          +1.0% ( 10.3%)     99.0%
 EFFECTIVE MASS      1.4403
 FORCE CONSTANT      2.1571

 VIBRATION         59   59A           ATOM PAIR      ENERGY CONTRIBUTION    RADIAL
 FREQUENCY          2659.86         C 22 -- H 23         +65.0% ( 83.1%)     99.4%
 TRANSITION DIPOLE   0.6419         C 22 -- H 24         +27.5% ( 54.1%)     93.1%
 TRAVEL (Ang.)       0.2215         C 22 -- H 25          +6.5% ( 26.3%)     65.5%
 REDUCED MASS        0.5167         C 17 -- C 22          +0.9% (  9.6%)      0.1%
 EFFECTIVE MASS      1.4411
 FORCE CONSTANT      2.1538

 VIBRATION         60   60A           ATOM PAIR      ENERGY CONTRIBUTION    RADIAL
 FREQUENCY          2666.11         C 10 -- H 12         +52.2% ( 74.5%)     98.8%
 TRANSITION DIPOLE   0.5830         C 10 -- H 13         +38.2% ( 63.8%)     96.2%
 TRAVEL (Ang.)       0.2411         C 10 -- H 11          +4.3% ( 21.4%)     53.4%
 REDUCED MASS        0.4351         C  1 -- H  2          +3.9% ( 20.3%)     99.7%
 EFFECTIVE MASS      1.4356
 FORCE CONSTANT      1.8223

 VIBRATION         61   61A           ATOM PAIR      ENERGY CONTRIBUTION    RADIAL
 FREQUENCY          2668.63         C 22 -- H 25         +54.5% ( 76.2%)     98.9%
 TRANSITION DIPOLE   0.6256         C 22 -- H 24         +39.7% ( 65.0%)     96.2%
 TRAVEL (Ang.)       0.2312         C 22 -- H 23          +4.2% ( 21.2%)     50.3%
 REDUCED MASS        0.4726         C 17 -- C 22          +0.9% (  9.7%)      0.0%
 EFFECTIVE MASS      1.4458
 FORCE CONSTANT      1.9830

 VIBRATION         62   62A           ATOM PAIR      ENERGY CONTRIBUTION    RADIAL
 FREQUENCY          2685.82         C  7 -- H  8         +62.6% ( 81.8%)     99.3%
 TRANSITION DIPOLE   0.4352         C  7 -- H  9         +30.6% ( 57.2%)     96.3%
 TRAVEL (Ang.)       0.2214         C  5 -- H  6          +4.5% ( 22.0%)     99.9%
 REDUCED MASS        0.5123         C  5 -- C  7          +1.0% ( 10.6%)      3.5%
 EFFECTIVE MASS      1.4744
 FORCE CONSTANT      2.1773

 VIBRATION         63   63A           ATOM PAIR      ENERGY CONTRIBUTION    RADIAL
 FREQUENCY          2705.35         C  1 -- H  2         +86.8% ( 94.6%)     99.9%
 TRANSITION DIPOLE   0.5906         C  3 -- H  4          +4.6% ( 21.7%)     99.9%
 TRAVEL (Ang.)       0.1823         C 10 -- H 11          +2.8% ( 16.9%)     95.1%
 REDUCED MASS        0.7497         C 10 -- H 13          +1.6% ( 12.8%)     87.8%
 EFFECTIVE MASS      1.3769
 FORCE CONSTANT      3.2329

 VIBRATION         64   64A           ATOM PAIR      ENERGY CONTRIBUTION    RADIAL
 FREQUENCY          2744.98         C  5 -- H  6         +78.1% ( 89.3%)    100.0%
 TRANSITION DIPOLE   0.7210         C  3 -- H  4         +10.9% ( 33.4%)     99.8%
 TRAVEL (Ang.)       0.2007         C  7 -- H  9          +7.3% ( 27.2%)     99.7%
 REDUCED MASS        0.6101         C  1 -- H  2          +1.0% (  9.8%)     98.9%
 EFFECTIVE MASS      1.3799
 FORCE CONSTANT      2.7083

 VIBRATION         65   65A           ATOM PAIR      ENERGY CONTRIBUTION    RADIAL
 FREQUENCY          2755.45         C  7 -- H  9         +60.3% ( 77.1%)     97.4%
 TRANSITION DIPOLE   0.7045         C  7 -- H  8         +32.1% ( 56.2%)     92.1%
 TRAVEL (Ang.)       0.2295         C  3 -- H  4          +3.1% ( 17.4%)     99.8%
 REDUCED MASS        0.4646         C  5 -- H  6          +1.9% ( 13.7%)     98.7%
 EFFECTIVE MASS      1.2887
 FORCE CONSTANT      2.0782

 VIBRATION         66   66A           ATOM PAIR      ENERGY CONTRIBUTION    RADIAL
 FREQUENCY          2761.14         C  3 -- H  4         +74.1% ( 86.4%)    100.0%
 TRANSITION DIPOLE   0.9538         C  5 -- H  6         +12.3% ( 35.1%)     99.6%
 TRAVEL (Ang.)       0.2124         C  1 -- H  2          +2.5% ( 15.7%)     98.4%
 REDUCED MASS        0.5412         C 10 -- H 11          +2.1% ( 14.6%)     96.5%
 EFFECTIVE MASS      1.3691
 FORCE CONSTANT      2.4311

 VIBRATION         67   67A           ATOM PAIR      ENERGY CONTRIBUTION    RADIAL
 FREQUENCY          2770.26         C 19 -- H 21         +81.9% ( 91.3%)    100.0%
 TRANSITION DIPOLE   0.6813         C 10 -- H 12          +3.9% ( 19.9%)     96.0%
 TRAVEL (Ang.)       0.1932         C 10 -- H 13          +3.5% ( 18.8%)     95.5%
 REDUCED MASS        0.6521         C 10 -- H 11          +2.7% ( 16.5%)     93.9%
 EFFECTIVE MASS      1.3716
 FORCE CONSTANT      2.9487

 VIBRATION         68   68A           ATOM PAIR      ENERGY CONTRIBUTION    RADIAL
 FREQUENCY          2773.90         C 10 -- H 12         +32.9% ( 55.4%)     96.8%
 TRANSITION DIPOLE   0.8408         C 10 -- H 13         +23.8% ( 47.1%)     94.5%
 TRAVEL (Ang.)       0.3394         C 10 -- H 11         +19.0% ( 42.2%)     93.0%
 REDUCED MASS        0.2110         C 19 -- H 21          +6.9% ( 25.4%)    100.0%
 EFFECTIVE MASS      1.1890
 FORCE CONSTANT      0.9568

 VIBRATION         69   69A           ATOM PAIR      ENERGY CONTRIBUTION    RADIAL
 FREQUENCY          2778.01         C 22 -- H 25         +32.5% ( 55.1%)     96.2%
 TRANSITION DIPOLE   0.7107         C 22 -- H 24         +26.3% ( 49.5%)     94.8%
 TRAVEL (Ang.)       0.3134         C 22 -- H 23         +25.0% ( 48.3%)     94.4%
 REDUCED MASS        0.2472         C 19 -- H 21          +9.4% ( 29.6%)     99.9%
 EFFECTIVE MASS      1.1792
 FORCE CONSTANT      1.1240

           FORCE CONSTANT IN CARTESIAN COORDINATES (Millidynes/A)

    ATOM   CHEMICAL       X               Y               Z
   NUMBER   SYMBOL  FORCE CONSTANT  FORCE CONSTANT  FORCE CONSTANT

      1       C        8.285658       11.142865        2.056434
      2       H        4.097271        0.916467        0.562292
      3       C        8.579986       11.000040        3.826862
      4       H        3.881084        0.928578        0.794939
      5       C        9.768734        8.984437        4.789698
      6       H        1.991548        3.022655        0.548698
      7       C       10.328521        5.142751        3.367242
      8       H        2.764590        1.711422        0.965143
      9       H        1.156495        2.861058        1.425878
     10       C        6.667120        7.313422        6.069577
     11       H        1.359973        2.922873        1.068344
     12       H        3.816429        0.766176        0.832601
     13       H        0.561102        0.729336        3.993012
     14       O        5.794380        5.823656        1.563501
     15       C       10.656274        9.652287        5.553061
     16       C        6.265310       15.919584        4.000834
     17       C        7.737953        8.719143        4.920681
     18       O        6.525434        6.300148        3.334914
     19       C        9.064556        9.314128        2.120844
     20       O        1.192167       13.203626        1.742004
     21       H        3.856475        1.159106        0.509485
     22       C        6.708217        6.863640        6.501051
     23       H        1.119863        1.377016        2.835848
     24       H        1.476909        2.863140        1.056893
     25       H        2.796503        1.069945        1.539740

 **********************
 *                    *
 * JOB ENDED NORMALLY *
 *                    *
 **********************



 TOTAL JOB TIME:             1.62 SECONDS

 == MOPAC DONE ==
