 *******************************************************************************
 ** Site#: 36969        For non-commercial use only    Version 21.051W 64BITS **
 *******************************************************************************
 ** Cite this program as: MOPAC2016, Version: 21.051W, James J. P. Stewart,   **
 ** Stewart Computational Chemistry, web: HTTP://OpenMOPAC.net. Days left: 295**
 *******************************************************************************
 **                                                                           **
 **                                MOPAC2016                                  **
 **                                                                           **
 *******************************************************************************

                              PM7 CALCULATION RESULTS

 *******************************************************************************
 *  CALCULATION DONE:                                Sat May  1 14:35:22 2021  *
 *  PM7        - The PM7 Hamiltonian to be used
 *  FORCE      - FORCE CALCULATION SPECIFIED
 *  T=         - A TIME OF 172800.0 SECONDS REQUESTED
 *  DUMP=N     - RESTART FILE WRITTEN EVERY 7200.0 SECONDS REQUESTED
 *******************************************************************************
PM7 FORCE
 TS_4_FREQ

   ATOM   CHEMICAL          X               Y               Z
  NUMBER   SYMBOL      (ANGSTROMS)     (ANGSTROMS)     (ANGSTROMS)
 
     1       C          0.28150283  *  -0.69160299  *  -1.86123405  *
     2       H          1.37272910  *  -0.71502774  *  -1.83774623  *
     3       C         -0.41135424  *   0.49923141  *  -1.91397784  *
     4       H         -1.45561161  *   0.50206431  *  -2.23926124  *
     5       C          0.13273521  *   1.69215942  *  -1.41950987  *
     6       H         -0.51137803  *   2.57593109  *  -1.37032355  *
     7       C          1.38816961  *   1.73173968  *  -0.83464671  *
     8       H          2.19596174  *   1.08804092  *  -1.16833654  *
     9       H          1.74517964  *   2.64248202  *  -0.36354302  *
    10       C         -0.38773483  *  -1.96333191  *  -2.24390487  *
    11       H          0.19864086  *  -2.85470682  *  -1.98487847  *
    12       H         -1.37449038  *  -2.08346216  *  -1.76002827  *
    13       H         -0.56616058  *  -2.00615392  *  -3.32994321  *
    14       O         -1.23181528  *   0.46776444  *   1.19521219  *
    15       C         -0.83423298  *  -0.77981278  *   0.66918438  *
    16       C         -0.11336257  *   1.29470389  *   1.33111304  *
    17       C          0.62789668  *  -0.71937061  *   0.42248315  *
    18       O         -1.65682629  *  -1.63241334  *   0.53081734  *
    19       C          1.07137844  *   0.55039127  *   0.80125154  *
    20       O         -0.22567323  *   2.38080530  *   1.80928666  *
    21       H          2.06161454  *   0.77489157  *   1.17610399  *
    22       C          1.45206127  *  -1.94506304  *   0.43513646  *
    23       H          1.57453066  *  -2.31825687  *   1.46805768  *
    24       H          0.99863756  *  -2.77208146  *  -0.13406248  *
    25       H          2.46149541  *  -1.78204504  *   0.03187329  *
 


          CARTESIAN COORDINATES 

    NO.       ATOM           X           Y           Z

     1         C          0.2815     -0.6916     -1.8612
     2         H          1.3727     -0.7150     -1.8377
     3         C         -0.4114      0.4992     -1.9140
     4         H         -1.4556      0.5021     -2.2393
     5         C          0.1327      1.6922     -1.4195
     6         H         -0.5114      2.5759     -1.3703
     7         C          1.3882      1.7317     -0.8346
     8         H          2.1960      1.0880     -1.1683
     9         H          1.7452      2.6425     -0.3635
    10         C         -0.3877     -1.9633     -2.2439
    11         H          0.1986     -2.8547     -1.9849
    12         H         -1.3745     -2.0835     -1.7600
    13         H         -0.5662     -2.0062     -3.3299
    14         O         -1.2318      0.4678      1.1952
    15         C         -0.8342     -0.7798      0.6692
    16         C         -0.1134      1.2947      1.3311
    17         C          0.6279     -0.7194      0.4225
    18         O         -1.6568     -1.6324      0.5308
    19         C          1.0714      0.5504      0.8013
    20         O         -0.2257      2.3808      1.8093
    21         H          2.0616      0.7749      1.1761
    22         C          1.4521     -1.9451      0.4351
    23         H          1.5745     -2.3183      1.4681
    24         H          0.9986     -2.7721     -0.1341
    25         H          2.4615     -1.7820      0.0319

 General Reference for PM7:
 "Optimization of Parameters for Semiempirical Methods VI: More Modifications to the 
 NDDO Approximations and Re-optimization of Parameters", J. J. P. Stewart, J. Mol. Mod., 1:32, 19 (2013)
 https://link.springer.com/article/10.1007/s00894-012-1667-x

           Empirical Formula: C10 H12 O3  =    25 atoms



      MOLECULAR POINT GROUP   :   C1  


      RHF CALCULATION, NO. OF DOUBLY OCCUPIED LEVELS = 35



          HEAT OF FORMATION =     -60.137389 KCALS/MOLE


          CARTESIAN COORDINATE DERIVATIVES

   NUMBER  ATOM         X            Y            Z

     1       C      0.033563     0.105449    -0.103590
     2       H      0.026109     0.100862    -0.206536
     3       C     -0.001796    -0.172769    -0.225044
     4       H      0.133331    -0.305935    -0.227066
     5       C      0.030093     0.043381     0.179004
     6       H      0.056031    -0.082687     0.366910
     7       C     -0.237387    -0.086572     0.101074
     8       H     -0.123292    -0.147076     0.246991
     9       H     -0.129944    -0.391230     0.275694
    10       C      0.028952     0.094068     0.201793
    11       H     -0.141866     0.055879     0.189814
    12       H     -0.034183     0.070798     0.022398
    13       H      0.165964    -0.403122     0.288719
    14       O     -0.002800     0.112708    -0.088111
    15       C      0.018977     0.130719    -0.059871
    16       C      0.061486     0.259303    -0.005352
    17       C     -0.024968     0.104217    -0.035787
    18       O      0.014123    -0.071528     0.082893
    19       C     -0.024804    -0.175821     0.254645
    20       O      0.228636     0.029861    -0.085756
    21       H      0.107153     0.045067    -0.239409
    22       C      0.008702     0.059425    -0.195413
    23       H     -0.569316     0.317709    -0.009964
    24       H      0.243163     0.351996    -0.615405
    25       H      0.134065    -0.044706    -0.112634
 


          GRADIENT NORM =   1.65335

          MOLECULAR WEIGHT =  180.20



          ROTATIONAL CONSTANTS IN CM(-1)

          A =    0.03791896   B =    0.02725357   C =    0.02274911



           PRINCIPAL MOMENTS OF INERTIA IN UNITS OF 10**(-40)*GRAM-CM**2

          A =      738.2263   B =     1027.1233   C =     1230.4998


          ORIENTATION OF MOLECULE IN FORCE CALCULATION

    NO.       ATOM         X         Y         Z

     1          C       0.2725   -0.6744   -1.8318
     2          H       1.3642   -0.6744   -1.8318
     3          C      -0.4467    0.5019   -1.8318
     4          H      -1.4976    0.4919   -2.1350
     5          C       0.0822    1.6903   -1.3106
     6          H      -0.5796    2.5576   -1.2197
     7          C       1.3487    1.7391   -0.7511
     8          H       2.1628    1.1243   -1.1220
     9          H       1.6962    2.6421   -0.2585
    10          C      -0.3774   -1.9479   -2.2411
    11          H       0.2334   -2.8338   -2.0231
    12          H      -1.3507   -2.1051   -1.7409
    13          H      -0.5782   -1.9602   -3.3240
    14          O      -1.1992    0.3537    1.2912
    15          C      -0.7864   -0.8674    0.7172
    16          C      -0.0961    1.2005    1.4303
    17          C       0.6685   -0.7669    0.4422
    18          O      -1.5933   -1.7332    0.5686
    19          C       1.0926    0.4998    0.8523
    20          O      -0.2214    2.2682    1.9454
    21          H       2.0857    0.7341    1.2134
    22          C       1.5188   -1.9738    0.3983
    23          H       1.6715   -2.3767    1.4159
    24          H       1.0711   -2.7922   -0.1877
    25          H       2.5156   -1.7758   -0.0205


    FIRST DERIVATIVES WILL BE USED IN THE CALCULATION OF SECOND DERIVATIVES

          ESTIMATED TIME TO COMPLETE CALCULATION =        1.76 SECONDS

    FOR POINT-GROUP C1   THERE ARE   1 UNIQUE SYMMETRY FUNCTIONS.

 STEP:   1 TIME =     0.02 SECS, INTEGRAL =      0.02 TIME LEFT: 172799.97
 STEP:   2 TIME =     0.02 SECS, INTEGRAL =      0.04 TIME LEFT: 172799.95
 STEP:   3 TIME =     0.04 SECS, INTEGRAL =      0.07 TIME LEFT: 172799.91
 STEP:   4 TIME =     0.02 SECS, INTEGRAL =      0.09 TIME LEFT: 172799.90
 STEP:   5 TIME =     0.02 SECS, INTEGRAL =      0.11 TIME LEFT: 172799.88
 STEP:   6 TIME =     0.02 SECS, INTEGRAL =      0.12 TIME LEFT: 172799.87
 STEP:   7 TIME =     0.02 SECS, INTEGRAL =      0.14 TIME LEFT: 172799.85
 STEP:   8 TIME =     0.03 SECS, INTEGRAL =      0.16 TIME LEFT: 172799.82
 STEP:   9 TIME =     0.02 SECS, INTEGRAL =      0.18 TIME LEFT: 172799.80
 STEP:  10 TIME =     0.02 SECS, INTEGRAL =      0.20 TIME LEFT: 172799.79
 STEP:  11 TIME =     0.01 SECS, INTEGRAL =      0.21 TIME LEFT: 172799.77
 STEP:  12 TIME =     0.02 SECS, INTEGRAL =      0.23 TIME LEFT: 172799.76
 STEP:  13 TIME =     0.02 SECS, INTEGRAL =      0.25 TIME LEFT: 172799.74
 STEP:  14 TIME =     0.02 SECS, INTEGRAL =      0.27 TIME LEFT: 172799.71
 STEP:  15 TIME =     0.04 SECS, INTEGRAL =      0.31 TIME LEFT: 172799.68
 STEP:  16 TIME =     0.04 SECS, INTEGRAL =      0.35 TIME LEFT: 172799.64
 STEP:  17 TIME =     0.02 SECS, INTEGRAL =      0.37 TIME LEFT: 172799.62
 STEP:  18 TIME =     0.02 SECS, INTEGRAL =      0.39 TIME LEFT: 172799.59
 STEP:  19 TIME =     0.04 SECS, INTEGRAL =      0.43 TIME LEFT: 172799.56
 STEP:  20 TIME =     0.04 SECS, INTEGRAL =      0.47 TIME LEFT: 172799.52
 STEP:  21 TIME =     0.02 SECS, INTEGRAL =      0.49 TIME LEFT: 172799.50
 STEP:  22 TIME =     0.02 SECS, INTEGRAL =      0.51 TIME LEFT: 172799.48
 STEP:  23 TIME =     0.02 SECS, INTEGRAL =      0.52 TIME LEFT: 172799.46
 STEP:  24 TIME =     0.02 SECS, INTEGRAL =      0.54 TIME LEFT: 172799.45
 STEP:  25 TIME =     0.01 SECS, INTEGRAL =      0.55 TIME LEFT: 172799.44
 STEP:  26 TIME =     0.02 SECS, INTEGRAL =      0.57 TIME LEFT: 172799.42
 STEP:  27 TIME =     0.02 SECS, INTEGRAL =      0.58 TIME LEFT: 172799.41
 STEP:  28 TIME =     0.02 SECS, INTEGRAL =      0.60 TIME LEFT: 172799.39
 STEP:  29 TIME =     0.02 SECS, INTEGRAL =      0.61 TIME LEFT: 172799.38
 STEP:  30 TIME =     0.02 SECS, INTEGRAL =      0.63 TIME LEFT: 172799.36
 STEP:  31 TIME =     0.01 SECS, INTEGRAL =      0.64 TIME LEFT: 172799.35
 STEP:  32 TIME =     0.02 SECS, INTEGRAL =      0.66 TIME LEFT: 172799.33
 STEP:  33 TIME =     0.02 SECS, INTEGRAL =      0.67 TIME LEFT: 172799.32
 STEP:  34 TIME =     0.01 SECS, INTEGRAL =      0.68 TIME LEFT: 172799.30
 STEP:  35 TIME =     0.02 SECS, INTEGRAL =      0.70 TIME LEFT: 172799.29
 STEP:  36 TIME =     0.02 SECS, INTEGRAL =      0.71 TIME LEFT: 172799.27
 STEP:  37 TIME =     0.02 SECS, INTEGRAL =      0.73 TIME LEFT: 172799.26
 STEP:  38 TIME =     0.01 SECS, INTEGRAL =      0.74 TIME LEFT: 172799.25
 STEP:  39 TIME =     0.02 SECS, INTEGRAL =      0.76 TIME LEFT: 172799.23
 STEP:  40 TIME =     0.02 SECS, INTEGRAL =      0.77 TIME LEFT: 172799.21
 STEP:  41 TIME =     0.04 SECS, INTEGRAL =      0.81 TIME LEFT: 172799.18
 STEP:  42 TIME =     0.03 SECS, INTEGRAL =      0.84 TIME LEFT: 172799.15
 STEP:  43 TIME =     0.04 SECS, INTEGRAL =      0.88 TIME LEFT: 172799.11
 STEP:  44 TIME =     0.02 SECS, INTEGRAL =      0.90 TIME LEFT: 172799.09
 STEP:  45 TIME =     0.02 SECS, INTEGRAL =      0.92 TIME LEFT: 172799.07
 STEP:  46 TIME =     0.04 SECS, INTEGRAL =      0.96 TIME LEFT: 172799.03
 STEP:  47 TIME =     0.02 SECS, INTEGRAL =      0.98 TIME LEFT: 172799.00
 STEP:  48 TIME =     0.03 SECS, INTEGRAL =      1.02 TIME LEFT: 172798.97
 STEP:  49 TIME =     0.02 SECS, INTEGRAL =      1.04 TIME LEFT: 172798.95
 STEP:  50 TIME =     0.02 SECS, INTEGRAL =      1.06 TIME LEFT: 172798.93
 STEP:  51 TIME =     0.02 SECS, INTEGRAL =      1.08 TIME LEFT: 172798.91
 STEP:  52 TIME =     0.02 SECS, INTEGRAL =      1.10 TIME LEFT: 172798.89
 STEP:  53 TIME =     0.02 SECS, INTEGRAL =      1.11 TIME LEFT: 172798.88
 STEP:  54 TIME =     0.03 SECS, INTEGRAL =      1.14 TIME LEFT: 172798.84
 STEP:  55 TIME =     0.02 SECS, INTEGRAL =      1.17 TIME LEFT: 172798.82
 STEP:  56 TIME =     0.02 SECS, INTEGRAL =      1.19 TIME LEFT: 172798.80
 STEP:  57 TIME =     0.02 SECS, INTEGRAL =      1.21 TIME LEFT: 172798.78
 STEP:  58 TIME =     0.02 SECS, INTEGRAL =      1.22 TIME LEFT: 172798.77
 STEP:  59 TIME =     0.02 SECS, INTEGRAL =      1.24 TIME LEFT: 172798.75
 STEP:  60 TIME =     0.02 SECS, INTEGRAL =      1.25 TIME LEFT: 172798.73
 STEP:  61 TIME =     0.02 SECS, INTEGRAL =      1.28 TIME LEFT: 172798.71
 STEP:  62 TIME =     0.02 SECS, INTEGRAL =      1.29 TIME LEFT: 172798.70
 STEP:  63 TIME =     0.02 SECS, INTEGRAL =      1.31 TIME LEFT: 172798.68
 STEP:  64 TIME =     0.02 SECS, INTEGRAL =      1.32 TIME LEFT: 172798.66
 STEP:  65 TIME =     0.02 SECS, INTEGRAL =      1.34 TIME LEFT: 172798.65
 STEP:  66 TIME =     0.02 SECS, INTEGRAL =      1.36 TIME LEFT: 172798.63
 STEP:  67 TIME =     0.02 SECS, INTEGRAL =      1.37 TIME LEFT: 172798.62
 STEP:  68 TIME =     0.01 SECS, INTEGRAL =      1.38 TIME LEFT: 172798.61
 STEP:  69 TIME =     0.01 SECS, INTEGRAL =      1.39 TIME LEFT: 172798.59
 STEP:  70 TIME =     0.03 SECS, INTEGRAL =      1.43 TIME LEFT: 172798.56
 STEP:  71 TIME =     0.03 SECS, INTEGRAL =      1.45 TIME LEFT: 172798.54
 STEP:  72 TIME =     0.02 SECS, INTEGRAL =      1.47 TIME LEFT: 172798.52
 STEP:  73 TIME =     0.02 SECS, INTEGRAL =      1.49 TIME LEFT: 172798.50
 STEP:  74 TIME =     0.02 SECS, INTEGRAL =      1.50 TIME LEFT: 172798.48
 STEP:  75 TIME =     0.01 SECS, INTEGRAL =      1.52 TIME LEFT: 172798.47

(To convert to Hartree/Bohr^2, multiply by (10^(-21) x N x a0^2)/(4.184 x 627.51) =  0.0642)


           FORCE MATRIX IN MILLIDYNES/ANGSTROM


                  C  1       H  2       C  3       H  4       C  5       H  6
 ------------------------------------------------------------------------------
     C    1  14.371266
     H    2   3.389524   4.281097
     C    3   6.951129   0.765544  15.156882
     H    4   0.784762   0.087768   3.429384   4.356359
     C    5   2.118333   0.169812   5.574401   0.772855  14.981543
     H    6   0.100277   0.006072   0.757836   0.032847   3.425079   4.327036
     C    7   1.312260   0.142091   2.284463   0.094402   6.748950   0.778345
     H    8   0.141465   0.026303   0.189146   0.005893   0.788837   0.078712
     H    9   0.026862   0.005569   0.098087   0.007667   0.746983   0.043733
     C   10   3.902818   0.669921   0.893835   0.056207   0.135811   0.013400
     H   11   0.720637   0.020486   0.043390   0.002934   0.015875   0.002158
     H   12   0.727077   0.037531   0.037959   0.017965   0.027271   0.002652
     H   13   0.734083   0.017674   0.029850   0.014137   0.016948   0.002047
     O   14   0.068143   0.007700   0.052317   0.015006   0.071244   0.024709
     C   15   0.349179   0.041930   0.273554   0.030699   0.297551   0.046887
     C   16   0.174206   0.019975   0.155584   0.028447   0.173944   0.037428
     C   17   1.615486   0.383547   1.667361   0.041975   1.568103   0.055138
     O   18   0.093408   0.010867   0.095410   0.014849   0.081349   0.012107
     C   19   1.444821   0.150628   1.701467   0.038601   2.176634   0.073141
     O   20   0.033087   0.007358   0.039937   0.009321   0.056250   0.020918
     H   21   0.142208   0.014297   0.167240   0.004827   0.193418   0.009042
     C   22   0.292786   0.036679   0.120244   0.008218   0.123780   0.008903
     H   23   0.025075   0.002020   0.014474   0.000574   0.014793   0.000982
     H   24   0.035774   0.014554   0.019011   0.002293   0.015339   0.002138
     H   25   0.012512   0.021325   0.013118   0.001786   0.013042   0.002441


                  C  7       H  8       H  9       C 10       H 11       H 12
 ------------------------------------------------------------------------------
     C    7  12.914756
     H    8   3.459855   4.235513
     H    9   3.505517   0.442658   4.260514
     C   10   0.067000   0.010186   0.009004  11.616176
     H   11   0.014317   0.002552   0.001588   3.403268   4.196942
     H   12   0.026704   0.003150   0.002094   3.325063   0.450407   4.129667
     H   13   0.007374   0.001977   0.001001   3.348077   0.460145   0.455755
     O   14   0.164771   0.009609   0.017513   0.053484   0.012823   0.031249
     C   15   0.455252   0.040920   0.025284   0.145690   0.031114   0.116084
     C   16   0.463344   0.021848   0.065100   0.049627   0.010865   0.025655
     C   17   1.826766   0.163371   0.049451   0.124903   0.013226   0.033990
     O   18   0.095576   0.012836   0.007621   0.106891   0.016528   0.058824
     C   19   2.464521   0.528154   0.262798   0.053553   0.013248   0.025294
     O   20   0.055847   0.006901   0.029691   0.022209   0.005211   0.008955
     H   21   0.561320   0.027038   0.028308   0.006322   0.002027   0.003090
     C   22   0.146268   0.018114   0.007347   0.067022   0.018436   0.011687
     H   23   0.017478   0.001527   0.000874   0.007177   0.002996   0.002853
     H   24   0.021097   0.003280   0.002157   0.027427   0.027511   0.010568
     H   25   0.018525   0.005109   0.002201   0.010863   0.005968   0.002258


                  H 13       O 14       C 15       C 16       C 17       O 18
 ------------------------------------------------------------------------------
     H   13   4.169044
     O   14   0.006980   8.978035
     C   15   0.018415   3.229424  18.575249
     C   16   0.008329   3.542387   2.368656  18.760194
     C   17   0.014073   1.196763   3.174151   1.288517  14.945840
     O   18   0.010079   1.834404  12.653428   0.421143   1.105988  14.696611
     C   19   0.004716   1.214091   1.475402   3.104942   6.082819   0.139763
     O   20   0.004224   1.850075   0.439265  12.770915   0.113767   0.127043
     H   21   0.001063   0.058002   0.095869   0.588005   0.736827   0.019257
     C   22   0.004752   0.113041   0.554397   0.123118   4.180222   0.058270
     H   23   0.000806   0.019416   0.044231   0.021217   0.755192   0.015744
     H   24   0.003031   0.023798   0.059991   0.024133   0.712737   0.026579
     H   25   0.002243   0.014850   0.034391   0.017995   0.732857   0.006444


                  C 19       O 20       H 21       C 22       H 23       H 24
 ------------------------------------------------------------------------------
     C   19  13.029510
     O   20   1.048942  14.798064
     H   21   3.484315   0.036647   4.320123
     C   22   0.747567   0.031086   0.043469  11.719734
     H   23   0.026898   0.007629   0.010070   3.329210   4.152198
     H   24   0.052552   0.004764   0.003639   3.356798   0.456394   4.170203
     H   25   0.024151   0.005146   0.011683   3.400603   0.456326   0.454868


                  H 25
 ------------------
     H   25   4.210671


          HEAT OF FORMATION =     -60.137389 KCALS/MOLE

          ZERO POINT ENERGY     117.572 KCAL/MOL

         NOTE: SYSTEM IS NOT A GROUND STATE, THEREFORE ZERO POINT
         ENERGY IS NOT MEANINGFULL. ZERO POINT ENERGY PRINTED
         DOES NOT INCLUDE THE  1 IMAGINARY FREQUENCIES


           NORMAL COORDINATE ANALYSIS (Total motion = 1 Angstrom)


   Root No.       1         2         3         4         5         6         7         8

                 1 A       2 A       3 A       4 A       5 A       6 A       7 A       8 A   

                -732.1      40.4      89.5     126.8     132.2     147.5     153.0     180.3
  
           1    0.0174    0.0198   -0.0028   -0.0017    0.0196   -0.0092    0.0040    0.0032
           2   -0.0161   -0.0050   -0.0097   -0.0170    0.0093   -0.0128    0.0047    0.0118
           3    0.0702   -0.0045    0.0045   -0.0215   -0.0050   -0.0135   -0.0040    0.0390
           4    0.0178    0.0199   -0.0029   -0.0021    0.0196   -0.0094    0.0039    0.0039
           5    0.0096    0.0179   -0.0057   -0.0354    0.0102   -0.0178    0.0021    0.0149
           6   -0.0555    0.0042   -0.0023   -0.0084    0.0003   -0.0023    0.0066    0.0089
           7   -0.0005   -0.0042   -0.0097    0.0192    0.0189   -0.0066    0.0025    0.0050
           8    0.0273   -0.0194   -0.0138   -0.0053    0.0087   -0.0120    0.0039    0.0149
           9    0.0072   -0.0058    0.0001   -0.0400   -0.0248    0.0025   -0.0132    0.0088
          10    0.0116   -0.0025   -0.0105    0.0227    0.0232   -0.0073    0.0056    0.0031
          11   -0.0053   -0.0397   -0.0226    0.0092    0.0052   -0.0066    0.0012    0.0074
          12   -0.0377   -0.0106    0.0023   -0.0533   -0.0395    0.0047   -0.0242    0.0159
          13   -0.0218   -0.0286   -0.0190    0.0296    0.0087   -0.0013   -0.0067    0.0084
          14   -0.0175   -0.0101   -0.0072   -0.0085    0.0130   -0.0180    0.0057    0.0287
          15   -0.0103   -0.0020   -0.0053   -0.0428   -0.0236    0.0098   -0.0088   -0.0245
          16    0.0329   -0.0460   -0.0273    0.0406    0.0037    0.0030   -0.0118    0.0080
          17    0.0249   -0.0238   -0.0135    0.0023    0.0102   -0.0152    0.0020    0.0299
          18   -0.0391    0.0006   -0.0065   -0.0653   -0.0329    0.0156   -0.0100   -0.0397
          19   -0.0019   -0.0292   -0.0185    0.0194    0.0011    0.0014   -0.0091    0.0080
          20   -0.0698    0.0132    0.0067   -0.0182    0.0191   -0.0245    0.0109    0.0382
          21    0.0942   -0.0030   -0.0087   -0.0190   -0.0112    0.0081   -0.0046   -0.0337
          22    0.0147   -0.0173   -0.0138    0.0175    0.0077   -0.0020   -0.0045    0.0064
          23    0.0330    0.0308    0.0131   -0.0337    0.0206   -0.0246    0.0176    0.0255
          24   -0.0547   -0.0059   -0.0089    0.0011    0.0019   -0.0008   -0.0055   -0.0130
          25   -0.0120   -0.0467   -0.0260    0.0242   -0.0101    0.0079   -0.0164    0.0055
          26   -0.0279    0.0175    0.0106   -0.0134    0.0164   -0.0206    0.0103    0.0327
          27    0.0348    0.0014   -0.0109   -0.0313    0.0011   -0.0024    0.0017   -0.0244
          28    0.0033    0.0499   -0.0006   -0.0220    0.0224   -0.0121    0.0019   -0.0037
          29    0.0043   -0.0166   -0.0150   -0.0124    0.0068   -0.0067    0.0079    0.0035
          30    0.0138   -0.0166    0.0163   -0.0030   -0.0033   -0.0255   -0.0121    0.0724
          31   -0.0069    0.1115   -0.0711   -0.0070   -0.0202   -0.0074   -0.0116    0.0306
          32   -0.0076    0.0025   -0.0240   -0.0142    0.0010   -0.0098    0.0024    0.0128
          33   -0.0004   -0.1142    0.1814   -0.0542    0.0951   -0.0521    0.0052    0.0116
          34   -0.0026    0.0976   -0.0787    0.0080   -0.0250   -0.0039   -0.0096    0.0355
          35   -0.0009   -0.0869    0.0662   -0.0220    0.0558   -0.0174    0.0195   -0.0241
          36    0.0038    0.0555   -0.1122    0.0537   -0.0819   -0.0113   -0.0312    0.1403
          37    0.0128   -0.0424    0.1634   -0.0913    0.1247   -0.0324    0.0268   -0.0906
          38    0.0322    0.0287   -0.0961    0.0036   -0.0400    0.0132    0.0044    0.0137
          39    0.0124    0.0000   -0.0131    0.0097   -0.0216   -0.0221   -0.0167    0.0886
          40    0.0067    0.0048    0.0053   -0.0088    0.0020    0.0207   -0.0001    0.0026
          41   -0.0005    0.0124    0.0074   -0.0014   -0.0199   -0.0312    0.0035   -0.0222
          42    0.0023    0.0114   -0.0074    0.0178    0.0533    0.0916   -0.0080    0.0107
          43    0.0100   -0.0100    0.0014   -0.0015   -0.0123    0.0078   -0.0014   -0.0063
          44   -0.0040    0.0136    0.0105    0.0065   -0.0079    0.0015   -0.0034   -0.0073
          45   -0.0016    0.0001   -0.0179    0.0048    0.0208    0.0070    0.0050   -0.0136
          46   -0.0007    0.0139    0.0097   -0.0139   -0.0014    0.0001    0.0036    0.0041
          47   -0.0014    0.0017   -0.0012    0.0035   -0.0060    0.0037   -0.0018   -0.0143
          48   -0.0013    0.0104    0.0107    0.0236    0.0052    0.0168   -0.0043   -0.0064
          49   -0.0230   -0.0089    0.0056   -0.0050   -0.0162    0.0058   -0.0026   -0.0014
          50    0.0036    0.0002    0.0039    0.0191   -0.0015    0.0051   -0.0034   -0.0054
          51   -0.0928   -0.0055   -0.0011   -0.0001   -0.0141    0.0125   -0.0049   -0.0184
          52   -0.0001   -0.0191   -0.0054    0.0035   -0.0121   -0.0114    0.0018   -0.0073
          53    0.0008    0.0228    0.0215    0.0016   -0.0090    0.0326   -0.0102   -0.0031
          54    0.0020   -0.0048   -0.0428    0.0048    0.0294   -0.0698    0.0297   -0.0362
          55    0.0066    0.0019    0.0055   -0.0135   -0.0108    0.0018   -0.0003   -0.0017
          56    0.0673   -0.0032    0.0040    0.0236   -0.0050    0.0095   -0.0025   -0.0093
          57   -0.0903   -0.0061   -0.0021   -0.0039   -0.0119    0.0068   -0.0097   -0.0120
          58    0.0002    0.0274    0.0172   -0.0129    0.0009   -0.0135    0.0111   -0.0020
          59   -0.0007   -0.0025   -0.0136   -0.0179    0.0029    0.0317   -0.0064   -0.0169
          60    0.0019    0.0223    0.0382    0.0679   -0.0128   -0.0440    0.0070   -0.0038
          61   -0.0160    0.0084    0.0083   -0.0149   -0.0061    0.0003    0.0018    0.0022
          62   -0.0606   -0.0081    0.0069    0.0267   -0.0061    0.0086   -0.0026    0.0022
          63    0.0730   -0.0212   -0.0120    0.0013   -0.0248    0.0144   -0.0152   -0.0354
          64   -0.0026   -0.0223    0.0083    0.0102   -0.0216    0.0169   -0.0056   -0.0054
          65    0.0051   -0.0097    0.0054    0.0303   -0.0063    0.0138   -0.0069   -0.0111
          66    0.0042    0.0013    0.0135   -0.0049   -0.0134    0.0081    0.0192    0.0099
          67   -0.0181   -0.0163    0.0030    0.0132    0.0184   -0.0712   -0.1962   -0.0444
          68    0.0344    0.0020    0.0147    0.0266    0.0235   -0.0524   -0.1157   -0.0104
          69    0.0142    0.0050    0.0181   -0.0069   -0.0077   -0.0046    0.0055    0.0162
          70    0.0132   -0.0382    0.0152    0.0225   -0.0496    0.0783    0.0992    0.0127
          71   -0.0140   -0.0121   -0.0016    0.0280   -0.0221    0.0479    0.0545   -0.0104
          72    0.0178    0.0169    0.0179   -0.0108    0.0297   -0.0858   -0.1458   -0.0046
          73    0.0008   -0.0244    0.0105    0.0089   -0.0378    0.0527    0.0713    0.0103
          74    0.0018   -0.0267    0.0050    0.0459   -0.0235    0.0508    0.0318   -0.0163
          75    0.0127   -0.0114    0.0182   -0.0009   -0.0597    0.1103    0.2209    0.0451


   Root No.       9        10        11        12        13        14        15        16

                 9 A      10 A      11 A      12 A      13 A      14 A      15 A      16 A   

                 215.2     223.9     266.0     287.7     336.2     364.4     399.3     439.6
  
           1    0.0029   -0.0123   -0.0140    0.0231   -0.0124   -0.0166    0.0375    0.0472
           2    0.0018    0.0117    0.0191   -0.0302   -0.0130   -0.0070    0.0049    0.0137
           3    0.0112    0.0023    0.0009    0.0121    0.0730   -0.0016    0.0261   -0.0316
           4    0.0045   -0.0115   -0.0131    0.0207   -0.0113   -0.0149    0.0344    0.0429
           5    0.0254    0.0193    0.0245   -0.0540   -0.0114   -0.0027   -0.0111    0.0235
           6   -0.0245    0.0033    0.0232   -0.0084    0.0844   -0.0054    0.0509   -0.0894
           7   -0.0136   -0.0218   -0.0136    0.0298   -0.0076   -0.0039    0.0178   -0.0053
           8   -0.0083    0.0066    0.0198   -0.0262   -0.0072   -0.0010   -0.0056   -0.0194
           9    0.0455    0.0214   -0.0176    0.0325    0.0109    0.0146   -0.0237    0.0294
          10   -0.0271   -0.0279   -0.0067    0.0213    0.0017   -0.0092    0.0365   -0.0316
          11   -0.0157    0.0058    0.0279   -0.0383   -0.0101    0.0111   -0.0262   -0.0694
          12    0.0962    0.0461   -0.0373    0.0532   -0.0194    0.0329   -0.0857    0.1190
          13    0.0123    0.0008   -0.0033    0.0050    0.0032    0.0160   -0.0297   -0.0089
          14   -0.0046    0.0057    0.0117   -0.0082    0.0106    0.0015   -0.0112    0.0065
          15    0.0147    0.0007   -0.0080    0.0142   -0.0484   -0.0036    0.0272   -0.0368
          16    0.0236    0.0162    0.0115   -0.0279    0.0296    0.0238   -0.0503    0.0161
          17    0.0016    0.0149    0.0223   -0.0326    0.0382    0.0114   -0.0368    0.0294
          18    0.0302    0.0145   -0.0079    0.0215   -0.1305   -0.0310    0.0933   -0.1054
          19    0.0309    0.0193   -0.0037    0.0083   -0.0144    0.0038   -0.0037   -0.0244
          20   -0.0155   -0.0138   -0.0167    0.0472    0.0001    0.0091   -0.0269   -0.0276
          21   -0.0299   -0.0386   -0.0034   -0.0070   -0.0062    0.0197   -0.0338    0.0034
          22    0.0085   -0.0043   -0.0138    0.0270   -0.0126    0.0138   -0.0339   -0.0347
          23   -0.0451   -0.0377   -0.0273    0.0695   -0.0207    0.0035   -0.0437   -0.0617
          24   -0.0287   -0.0515   -0.0089    0.0015    0.0319    0.0525   -0.0737    0.0337
          25    0.0638    0.0555    0.0126   -0.0255   -0.0171   -0.0120    0.0400   -0.0048
          26   -0.0190   -0.0165   -0.0265    0.0549    0.0060    0.0126   -0.0407   -0.0259
          27   -0.0487   -0.0603    0.0029    0.0026   -0.0162    0.0256   -0.0427   -0.0155
          28    0.0321    0.0096    0.0114   -0.0319    0.0016    0.0026   -0.0050   -0.0060
          29   -0.0112    0.0130    0.0117    0.0058    0.0105   -0.0182    0.0341    0.0329
          30    0.0057   -0.0325   -0.0083   -0.0280   -0.0273   -0.0014    0.0118    0.0071
          31    0.0414    0.0184    0.0328   -0.0718   -0.0098    0.0207   -0.0444   -0.0427
          32   -0.0004    0.0174    0.0245   -0.0282   -0.0063   -0.0061    0.0040    0.0093
          33    0.0264   -0.0393   -0.0165   -0.0608   -0.0683   -0.0002   -0.0069    0.0094
          34    0.0222    0.0036    0.0169   -0.0372   -0.0184    0.0060   -0.0100   -0.0020
          35   -0.0238   -0.0092   -0.0135    0.0313   -0.0212   -0.0387    0.0674    0.0858
          36   -0.0190   -0.0520   -0.0057   -0.0310   -0.0785   -0.0025    0.0149    0.0345
          37    0.0639    0.0302    0.0069   -0.0353    0.0497    0.0042   -0.0156   -0.0386
          38   -0.0219    0.0340    0.0164    0.0569    0.0934   -0.0229    0.0624    0.0208
          39   -0.0002   -0.0369   -0.0076   -0.0282   -0.0385   -0.0014    0.0131    0.0131
          40   -0.0090    0.0022   -0.0035   -0.0019    0.0005   -0.0553   -0.0118   -0.0014
          41    0.0039   -0.0078   -0.0044   -0.0036    0.0047    0.0074    0.0040   -0.0004
          42    0.0001    0.0084   -0.0041    0.0010   -0.0053    0.0158    0.0006   -0.0005
          43   -0.0141    0.0053   -0.0140   -0.0089    0.0020   -0.0309   -0.0045   -0.0000
          44    0.0029   -0.0004   -0.0189   -0.0023   -0.0005    0.0047   -0.0006    0.0026
          45   -0.0004    0.0002    0.0040   -0.0040    0.0116   -0.0045    0.0114   -0.0078
          46   -0.0068   -0.0017   -0.0003   -0.0004    0.0047   -0.0306   -0.0071    0.0002
          47    0.0019    0.0025   -0.0139   -0.0026    0.0014   -0.0013    0.0032   -0.0044
          48   -0.0012   -0.0055   -0.0081   -0.0079    0.0075    0.0031   -0.0022    0.0122
          49   -0.0133    0.0039   -0.0116   -0.0070    0.0058   -0.0374   -0.0034    0.0010
          50    0.0045    0.0072   -0.0237    0.0015   -0.0065    0.0176   -0.0018   -0.0002
          51   -0.0142   -0.0002    0.0088   -0.0180    0.0194   -0.0029    0.0149   -0.0088
          52   -0.0199    0.0192   -0.0452   -0.0155    0.0042    0.0573    0.0070    0.0005
          53    0.0065   -0.0122    0.0091    0.0019    0.0009   -0.0709   -0.0075    0.0001
          54    0.0107   -0.0060    0.0098    0.0070   -0.0064   -0.0375   -0.0106    0.0042
          55   -0.0103    0.0009   -0.0088   -0.0061    0.0036   -0.0366   -0.0069   -0.0009
          56    0.0003    0.0153   -0.0195    0.0009   -0.0049    0.0013    0.0030   -0.0090
          57   -0.0042   -0.0202   -0.0073   -0.0155    0.0213    0.0126   -0.0018    0.0204
          58   -0.0060   -0.0073    0.0277    0.0026   -0.0011    0.1118    0.0111    0.0033
          59   -0.0018   -0.0070   -0.0106   -0.0057    0.0043    0.0230    0.0034    0.0038
          60    0.0067    0.0122   -0.0083   -0.0007    0.0003   -0.0145    0.0017   -0.0039
          61   -0.0099    0.0000   -0.0058   -0.0030    0.0039   -0.0410   -0.0063   -0.0028
          62    0.0002    0.0226   -0.0230    0.0022    0.0032    0.0011    0.0175   -0.0131
          63   -0.0072   -0.0219   -0.0109   -0.0269    0.0119    0.0275   -0.0140    0.0276
          64    0.0068   -0.0217    0.0607    0.0136    0.0059   -0.0154    0.0003    0.0017
          65    0.0192   -0.0118    0.0250    0.0137   -0.0075    0.0385    0.0013    0.0001
          66   -0.0405    0.0526    0.0373    0.0128   -0.0199    0.0026   -0.0098    0.0073
          67   -0.0155   -0.0242    0.1071    0.0259    0.0212   -0.0121    0.0137   -0.0021
          68   -0.0215    0.0369    0.0739    0.0482   -0.0358    0.0450   -0.0160    0.0142
          69   -0.0534    0.0727    0.0495    0.0245   -0.0341    0.0050   -0.0192    0.0139
          70    0.0426   -0.0503    0.1099    0.0274   -0.0039    0.0096   -0.0034    0.0057
          71    0.0332   -0.0283   -0.0216   -0.0095    0.0083    0.0259    0.0094   -0.0071
          72   -0.0866    0.0966    0.0679    0.0358   -0.0354    0.0018   -0.0189    0.0151
          73    0.0156   -0.0209    0.0420    0.0090    0.0001   -0.0170   -0.0048    0.0032
          74    0.0573   -0.0596    0.0805    0.0208    0.0029    0.0652    0.0121   -0.0037
          75   -0.0026    0.0339    0.0156    0.0042   -0.0295    0.0098   -0.0175    0.0092


   Root No.      17        18        19        20        21        22        23        24

                17 A      18 A      19 A      20 A      21 A      22 A      23 A      24 A   

                 457.2     549.9     589.7     617.3     622.1     653.4     707.4     804.3
  
           1    0.0100    0.0058    0.0038   -0.0007    0.0016   -0.0020   -0.0016   -0.0016
           2    0.0051    0.0023    0.0040   -0.0189    0.0170   -0.0017    0.0002   -0.0025
           3   -0.0225   -0.0145    0.0013   -0.0070    0.0061   -0.0111    0.0018    0.0090
           4    0.0083    0.0046    0.0027    0.0004    0.0007   -0.0017   -0.0002   -0.0012
           5    0.0069    0.0034    0.0095   -0.0610    0.0530    0.0045    0.0124   -0.0057
           6   -0.0120   -0.0092    0.0268   -0.0130    0.0133   -0.0644   -0.0573   -0.0430
           7    0.0012    0.0015   -0.0092    0.0477   -0.0406    0.0022   -0.0058    0.0104
           8   -0.0029   -0.0006   -0.0083    0.0177   -0.0156    0.0108    0.0007    0.0083
           9    0.0208    0.0065   -0.0029    0.0178   -0.0164   -0.0057   -0.0108   -0.0084
          10   -0.0142   -0.0071   -0.0080    0.0463   -0.0397   -0.0099   -0.0029   -0.0301
          11   -0.0137   -0.0078   -0.0093    0.0098   -0.0082    0.0036    0.0022   -0.0248
          12    0.0710    0.0340   -0.0042    0.0052   -0.0039    0.0335   -0.0183    0.1252
          13    0.0080    0.0024    0.0030   -0.0250    0.0222    0.0021   -0.0020    0.0039
          14    0.0056    0.0027   -0.0157    0.0614   -0.0540    0.0032   -0.0074    0.0191
          15   -0.0120   -0.0066   -0.0041    0.0111   -0.0071   -0.0083    0.0065   -0.0302
          16    0.0163    0.0049    0.0077   -0.0216    0.0152   -0.0105   -0.0039   -0.0485
          17    0.0154    0.0052   -0.0101    0.0594   -0.0553   -0.0104   -0.0075   -0.0377
          18   -0.0413   -0.0149   -0.0136   -0.0247    0.0283    0.0443    0.0021    0.1394
          19    0.0005   -0.0026    0.0013   -0.0197    0.0188    0.0155   -0.0012   -0.0004
          20    0.0065   -0.0027   -0.0047   -0.0060    0.0099    0.0143    0.0078   -0.0190
          21    0.0188    0.0107    0.0075   -0.0011   -0.0033   -0.0228   -0.0053   -0.0134
          22    0.0208    0.0082    0.0146   -0.0963    0.0815    0.0214   -0.0146    0.0363
          23    0.0445    0.0261    0.0138   -0.0972    0.0738    0.0504   -0.0493    0.1055
          24   -0.0034   -0.0149    0.0047   -0.0346    0.0443   -0.0652    0.0638   -0.1224
          25   -0.0210   -0.0156   -0.0151    0.0952   -0.0739    0.0009    0.0132   -0.0775
          26    0.0204   -0.0070    0.0178   -0.0411    0.0433    0.0188    0.0104   -0.0974
          27    0.0147    0.0294   -0.0185   -0.0285    0.0092   -0.0201   -0.0269    0.1930
          28    0.0022    0.0013    0.0020   -0.0059    0.0049   -0.0017   -0.0013   -0.0028
          29    0.0050    0.0030    0.0091   -0.0338    0.0297   -0.0087   -0.0026   -0.0061
          30    0.0035   -0.0007    0.0043   -0.0083    0.0101   -0.0066   -0.0029    0.0018
          31   -0.0032   -0.0030   -0.0059    0.0065   -0.0042    0.0043    0.0003    0.0025
          32    0.0035    0.0028    0.0026   -0.0252    0.0225   -0.0028   -0.0009   -0.0068
          33    0.0148    0.0116   -0.0006   -0.0046    0.0027    0.0010   -0.0031   -0.0182
          34    0.0043    0.0049   -0.0014   -0.0015    0.0011    0.0012   -0.0009   -0.0079
          35    0.0227    0.0145    0.0167   -0.0427    0.0359   -0.0078   -0.0030   -0.0275
          36    0.0162    0.0133    0.0020   -0.0067    0.0072   -0.0011   -0.0036   -0.0214
          37   -0.0107   -0.0103    0.0003   -0.0044   -0.0000   -0.0038    0.0028    0.0195
          38   -0.0165   -0.0139    0.0130   -0.0443    0.0398   -0.0191    0.0018    0.0264
          39    0.0061    0.0025    0.0037   -0.0070    0.0092   -0.0052   -0.0033   -0.0050
          40   -0.0148    0.0223    0.0232    0.0376    0.0416   -0.0246    0.0046   -0.0007
          41   -0.0014    0.0368   -0.0374   -0.0139   -0.0098    0.0201   -0.0040   -0.0022
          42   -0.0015   -0.0017   -0.0278   -0.0132   -0.0106   -0.0513   -0.0116    0.0017
          43    0.0205   -0.0506   -0.0045    0.0001   -0.0010    0.0302    0.0317    0.0030
          44   -0.0276    0.0103   -0.0427   -0.0388   -0.0404   -0.0447   -0.0400   -0.0029
          45    0.0494    0.0599    0.0019   -0.0146   -0.0251    0.0863    0.1130   -0.0016
          46   -0.0354    0.0765    0.0222    0.0013   -0.0036    0.0036   -0.0123   -0.0066
          47    0.0133    0.0206   -0.0331    0.0352    0.0480   -0.0569    0.0309    0.0051
          48   -0.0425   -0.0097   -0.0013    0.0067    0.0127    0.1515   -0.0720   -0.0074
          49    0.0167   -0.0559   -0.0030   -0.0041   -0.0063    0.0020   -0.0006    0.0018
          50   -0.0217   -0.0218    0.0610   -0.0009   -0.0110   -0.0034    0.0177    0.0031
          51    0.0655    0.0284    0.0451    0.0030   -0.0056   -0.0250   -0.0715    0.0035
          52   -0.0120    0.0180   -0.0442   -0.0233   -0.0219   -0.0069   -0.0019   -0.0003
          53    0.0140   -0.0442   -0.0155   -0.0254   -0.0311    0.0092    0.0184    0.0008
          54   -0.0162   -0.0350    0.0010   -0.0044   -0.0049   -0.0219   -0.0252    0.0005
          55   -0.0177    0.0243    0.0519   -0.0152   -0.0265   -0.0138   -0.0002    0.0053
          56    0.0340   -0.0258    0.0492    0.0097    0.0007    0.0156   -0.0272   -0.0054
          57   -0.0596   -0.0347    0.0146    0.0037    0.0048   -0.0139    0.0608    0.0147
          58    0.0192   -0.0435    0.0181    0.0056    0.0031   -0.0009    0.0057    0.0008
          59   -0.0064   -0.0041   -0.0304    0.0371    0.0529    0.0338   -0.0103    0.0020
          60    0.0132    0.0079   -0.0231    0.0178    0.0265   -0.0280    0.0161    0.0036
          61   -0.0289    0.0626    0.0509   -0.0104   -0.0215    0.0114   -0.0216    0.0010
          62    0.0626   -0.0999    0.0546   -0.0016   -0.0170    0.0178   -0.0308   -0.0100
          63   -0.0328   -0.0877    0.0137    0.0002    0.0036   -0.0866    0.1070    0.0256
          64    0.0061   -0.0069   -0.0512   -0.0047    0.0026    0.0038   -0.0112   -0.0030
          65   -0.0292    0.0235    0.0691   -0.0015   -0.0130   -0.0134    0.0163    0.0049
          66   -0.0086    0.0036    0.0024   -0.0013   -0.0006    0.0010   -0.0060    0.0017
          67    0.0355    0.0328   -0.0482   -0.0043    0.0028   -0.0173   -0.0705   -0.0007
          68   -0.0941    0.0125    0.0238   -0.0059   -0.0078    0.0102    0.0913   -0.0003
          69   -0.0406   -0.0072   -0.0144   -0.0031    0.0010    0.0134    0.0372   -0.0008
          70   -0.0268    0.0423   -0.0974   -0.0102    0.0066    0.0057    0.0039   -0.0072
          71    0.0105    0.0072    0.1022    0.0016   -0.0160   -0.0214   -0.0186    0.0093
          72   -0.0420   -0.0091   -0.0153   -0.0021    0.0011    0.0117    0.0333   -0.0020
          73   -0.0065   -0.0227   -0.0504   -0.0048    0.0015    0.0104    0.0124   -0.0038
          74   -0.0201    0.1017    0.0410   -0.0062   -0.0122   -0.0336   -0.0330    0.0045
          75   -0.0335   -0.0035   -0.0101   -0.0025   -0.0012    0.0120    0.0325   -0.0017


   Root No.      25        26        27        28        29        30        31        32

                25 A      26 A      27 A      28 A      29 A      30 A      31 A      32 A   

                 863.7     913.7     943.5     973.8     983.7    1002.2    1014.8    1027.0
  
           1   -0.0024   -0.0031    0.0062   -0.0009   -0.0014   -0.0045   -0.0049    0.0020
           2    0.0004   -0.0005   -0.0023    0.0016    0.0005   -0.0001    0.0003   -0.0001
           3    0.0012    0.0096   -0.0004   -0.0050    0.0013   -0.0024    0.0021   -0.0014
           4   -0.0019   -0.0017    0.0053   -0.0011   -0.0027   -0.0036   -0.0025    0.0021
           5   -0.0189    0.0063    0.0263   -0.0337   -0.0267   -0.0315   -0.0539    0.0252
           6    0.1193   -0.0962   -0.1042    0.1496    0.1528    0.0835   -0.0614   -0.0569
           7    0.0023    0.0086   -0.0056    0.0026   -0.0002    0.0081    0.0267   -0.0068
           8   -0.0095    0.0078    0.0083   -0.0041    0.0018   -0.0015   -0.0021   -0.0003
           9    0.0096   -0.0332    0.0028    0.0101    0.0003   -0.0202    0.0150    0.0252
          10    0.0062   -0.0429    0.0111    0.0007   -0.0185   -0.0322    0.0360    0.0358
          11    0.0010   -0.0275    0.0041   -0.0061   -0.0178   -0.0286   -0.0117    0.0384
          12   -0.0029    0.1403   -0.0542    0.0152    0.0600    0.1132   -0.0316   -0.1161
          13    0.0063    0.0035   -0.0126    0.0027    0.0023   -0.0026   -0.0036    0.0102
          14    0.0025   -0.0023   -0.0001    0.0089    0.0080   -0.0086   -0.0073    0.0133
          15    0.0014   -0.0044    0.0017   -0.0150   -0.0206    0.0121   -0.0012   -0.0248
          16    0.0011   -0.0378    0.0131   -0.0322   -0.0435    0.0142   -0.0118   -0.0373
          17   -0.0004   -0.0404    0.0233   -0.0247   -0.0379    0.0130   -0.0138   -0.0367
          18   -0.0054    0.0828   -0.0384    0.0738    0.1010   -0.0812    0.0004    0.1387
          19   -0.0054   -0.0048    0.0120   -0.0032   -0.0010   -0.0008   -0.0061   -0.0069
          20   -0.0050    0.0076    0.0101   -0.0029    0.0010    0.0055   -0.0177   -0.0093
          21    0.0006    0.0113   -0.0128   -0.0034    0.0038    0.0077   -0.0110    0.0058
          22   -0.0056   -0.0254    0.0208    0.0072    0.0041   -0.0238    0.0407    0.0123
          23   -0.0246   -0.0736    0.0646   -0.0146   -0.0049    0.0097    0.0243   -0.0258
          24    0.0325    0.0892   -0.0735    0.0428    0.0230   -0.0604    0.0404    0.0781
          25   -0.0103    0.0426    0.0026   -0.0154    0.0140    0.0388   -0.0861   -0.0242
          26   -0.0359    0.0478    0.0358    0.0130    0.0358    0.0051    0.0348    0.0292
          27    0.0611   -0.1008   -0.0533   -0.0197   -0.0710   -0.0261   -0.0370   -0.0459
          28    0.0044   -0.0036   -0.0007    0.0006    0.0036   -0.0019   -0.0266    0.0049
          29    0.0074   -0.0022   -0.0083    0.0053    0.0028    0.0084    0.0326   -0.0084
          30    0.0025    0.0122   -0.0039   -0.0048   -0.0193    0.0056   -0.0027    0.0023
          31   -0.0002    0.0051   -0.0157    0.0152    0.0002    0.0234    0.1578   -0.0336
          32    0.0057   -0.0062   -0.0180    0.0192    0.0140    0.0230    0.1542   -0.0353
          33    0.0100   -0.0342   -0.0065    0.0217    0.0467    0.0043    0.0639   -0.0194
          34    0.0045   -0.0170   -0.0010    0.0079    0.0225   -0.0030    0.0052   -0.0034
          35    0.0172   -0.0488    0.0052    0.0169    0.0496   -0.0245   -0.1364    0.0211
          36    0.0110   -0.0415    0.0009    0.0162    0.0488   -0.0111   -0.0180   -0.0019
          37   -0.0061    0.0476   -0.0067   -0.0292   -0.0579    0.0146    0.0393   -0.0015
          38   -0.0031    0.0756   -0.0044   -0.0509   -0.0989    0.0134   -0.0729    0.0267
          39    0.0051   -0.0052   -0.0025    0.0049    0.0034    0.0005   -0.0087    0.0008
          40    0.0381    0.0079    0.0045    0.0379   -0.0080   -0.0239    0.0012   -0.0147
          41   -0.0180    0.0025    0.0044    0.0978   -0.0222    0.0059   -0.0047    0.0009
          42   -0.0165    0.0000    0.0018    0.0316   -0.0078    0.0086   -0.0022    0.0042
          43    0.0558    0.0010    0.0117    0.0140   -0.0051    0.0199   -0.0025    0.0109
          44   -0.0008    0.0024   -0.0054   -0.0466    0.0123   -0.0207    0.0035   -0.0111
          45   -0.0080   -0.0027   -0.0057   -0.0181    0.0064   -0.0120    0.0020   -0.0070
          46   -0.0197    0.0034   -0.0120   -0.0289    0.0100   -0.0205    0.0009   -0.0092
          47   -0.0108   -0.0047   -0.0048   -0.0358    0.0058    0.0072    0.0007    0.0055
          48    0.0060   -0.0001    0.0020   -0.0042    0.0037   -0.0009   -0.0002   -0.0027
          49   -0.0403   -0.0046   -0.0169    0.0019   -0.0056   -0.0049   -0.0004   -0.0002
          50   -0.0190   -0.0050   -0.0107    0.0065   -0.0010    0.0019   -0.0006    0.0011
          51    0.0102    0.0074    0.0100   -0.0065   -0.0025   -0.0005    0.0017    0.0011
          52    0.0354    0.0040    0.0049   -0.0089    0.0013   -0.0037    0.0008   -0.0020
          53    0.0418    0.0023    0.0038   -0.0219    0.0036   -0.0006    0.0011    0.0001
          54    0.0075    0.0008    0.0009   -0.0071    0.0011    0.0005    0.0002    0.0005
          55   -0.0505   -0.0104    0.0138   -0.0083    0.0073    0.0476    0.0011    0.0265
          56   -0.0322    0.0040    0.0025    0.0098    0.0097   -0.0132    0.0030   -0.0066
          57   -0.0199   -0.0042    0.0096    0.0027   -0.0028   -0.0045    0.0029   -0.0018
          58    0.0015    0.0002    0.0004   -0.0070    0.0022   -0.0026    0.0006   -0.0013
          59   -0.0056   -0.0059   -0.0006   -0.0289    0.0046    0.0144    0.0003    0.0084
          60   -0.0042   -0.0033   -0.0001   -0.0123    0.0011    0.0085    0.0001    0.0053
          61   -0.0201   -0.0135   -0.0243   -0.0536   -0.0160    0.0684   -0.0033    0.0527
          62   -0.0479    0.0007   -0.0765    0.0504   -0.0571   -0.0405    0.0277    0.0125
          63   -0.0954    0.0109    0.1583    0.0993    0.1095   -0.0579   -0.0023   -0.0935
          64   -0.0447   -0.0033   -0.0145   -0.0021    0.0014   -0.0122   -0.0050   -0.0110
          65    0.0368   -0.0011   -0.0085   -0.0025   -0.0091   -0.0040   -0.0049   -0.0047
          66    0.0017    0.0059    0.0139   -0.0086   -0.0023   -0.0093   -0.0024   -0.0014
          67   -0.0052    0.0190    0.0657   -0.0154    0.0122   -0.0072    0.0058    0.0094
          68    0.0496   -0.0221   -0.0506    0.0339   -0.0051    0.0521    0.0053    0.0228
          69    0.0047   -0.0082   -0.0226    0.0108   -0.0035    0.0162    0.0009    0.0073
          70    0.0231    0.0010    0.0373    0.0159    0.0228    0.0600    0.0262    0.0458
          71    0.0021    0.0068   -0.0051   -0.0205   -0.0205   -0.0498   -0.0236   -0.0306
          72    0.0012   -0.0095   -0.0262    0.0086    0.0008    0.0134    0.0052    0.0011
          73   -0.0541   -0.0130   -0.0444    0.0094   -0.0009   -0.0073   -0.0062   -0.0148
          74    0.1263    0.0258    0.1057   -0.0165    0.0141    0.0451    0.0304    0.0493
          75    0.0037   -0.0090   -0.0239    0.0131   -0.0002    0.0171    0.0057    0.0045


   Root No.      33        34        35        36        37        38        39        40

                33 A      34 A      35 A      36 A      37 A      38 A      39 A      40 A   

                1040.8    1045.9    1067.1    1098.4    1132.3    1166.0    1197.0    1221.7
  
           1    0.0022   -0.0029   -0.0008   -0.0023    0.0010    0.0591    0.0054    0.0049
           2    0.0014   -0.0037    0.0008    0.0022    0.0001    0.0314    0.0052    0.0034
           3    0.0031    0.0001   -0.0263   -0.0277    0.0141    0.0063    0.0068    0.0039
           4    0.0009   -0.0018   -0.0009   -0.0027    0.0008    0.0438    0.0044    0.0040
           5    0.0053    0.0132   -0.0213   -0.0411    0.0161    0.0036    0.0173    0.0166
           6    0.0067   -0.0387    0.0502    0.1316   -0.0520    0.0656   -0.0030    0.0106
           7    0.0032   -0.0124    0.0003    0.0005   -0.0029   -0.0416   -0.0036   -0.0025
           8    0.0125   -0.0180   -0.0040   -0.0059   -0.0045    0.0018   -0.0028   -0.0010
           9   -0.0087    0.0031    0.0124    0.0086   -0.0095   -0.0110   -0.0034   -0.0009
          10   -0.0135    0.0045    0.0155    0.0041   -0.0041   -0.0220   -0.0017   -0.0010
          11    0.0048   -0.0047    0.0114    0.0104   -0.0231   -0.1667   -0.0203   -0.0099
          12    0.0488   -0.0511   -0.0417   -0.0054   -0.0016   -0.0486   -0.0008   -0.0049
          13   -0.0067    0.0137   -0.0023    0.0014   -0.0065   -0.0062    0.0042    0.0027
          14    0.0024   -0.0087    0.0049    0.0014    0.0019    0.0181    0.0043    0.0023
          15    0.0136   -0.0158   -0.0040    0.0024    0.0160   -0.0023   -0.0003   -0.0012
          16    0.0429   -0.0493   -0.0095   -0.0013    0.0027    0.0781    0.0003    0.0064
          17    0.0429   -0.0580   -0.0024   -0.0001    0.0112    0.0734   -0.0009    0.0053
          18   -0.0249    0.0086    0.0068   -0.0074   -0.0207    0.0611    0.0127    0.0014
          19    0.0006    0.0013    0.0004   -0.0025    0.0060    0.0179   -0.0030   -0.0025
          20   -0.0152    0.0281   -0.0020   -0.0015    0.0139    0.0069    0.0029   -0.0040
          21   -0.0064    0.0198   -0.0035   -0.0059   -0.0300    0.0102    0.0038    0.0108
          22    0.0434   -0.0942    0.0132   -0.0018   -0.0036    0.0290   -0.0052    0.0070
          23    0.0346   -0.0520    0.0198   -0.0265   -0.1303    0.0151   -0.0156    0.0404
          24    0.0236   -0.0979   -0.0065    0.0389    0.1929    0.0255    0.0222   -0.0449
          25   -0.0697    0.1434   -0.0104   -0.0172   -0.0357    0.0526    0.0117    0.0213
          26    0.0209   -0.0693    0.0118   -0.0252   -0.0827   -0.0066    0.0013    0.0129
          27   -0.0081    0.0693   -0.0190    0.0489    0.1754    0.0108   -0.0068   -0.0366
          28    0.0061   -0.0029   -0.0021   -0.0015   -0.0002   -0.0470   -0.0052   -0.0043
          29   -0.0131    0.0142   -0.0013    0.0017   -0.0003   -0.0372   -0.0051   -0.0038
          30   -0.0044   -0.0002    0.0274    0.0229   -0.0083   -0.0094   -0.0034   -0.0009
          31   -0.0452    0.0314   -0.0036    0.0027   -0.0007    0.0269    0.0002    0.0061
          32   -0.0434    0.0376   -0.0175   -0.0078    0.0045    0.0121   -0.0003    0.0026
          33   -0.0095    0.0184   -0.0492   -0.0351    0.0139   -0.0070    0.0008   -0.0048
          34    0.0029    0.0039   -0.0262   -0.0194    0.0075   -0.0195    0.0019   -0.0067
          35    0.0353   -0.0179   -0.0538   -0.0427    0.0133   -0.1345   -0.0042   -0.0068
          36    0.0114    0.0012   -0.0517   -0.0380    0.0141   -0.0271    0.0057   -0.0082
          37   -0.0178    0.0062    0.0704    0.0550   -0.0188    0.0339    0.0011   -0.0040
          38    0.0074   -0.0081    0.1238    0.0889   -0.0297   -0.0403   -0.0115   -0.0126
          39    0.0008   -0.0010   -0.0015    0.0003    0.0000   -0.0163   -0.0018    0.0002
          40    0.0112    0.0075    0.0002   -0.0020   -0.0118    0.0008    0.0374   -0.0522
          41   -0.0060   -0.0026   -0.0066   -0.0029    0.0012   -0.0004   -0.0109    0.0068
          42   -0.0045   -0.0028   -0.0034   -0.0025    0.0016    0.0000   -0.0129    0.0123
          43   -0.0122   -0.0079   -0.0032   -0.0054    0.0052    0.0004   -0.0389    0.0385
          44    0.0115    0.0067    0.0058    0.0015   -0.0071   -0.0003    0.0332   -0.0337
          45    0.0054    0.0040    0.0026    0.0092   -0.0032   -0.0004    0.0210   -0.0214
          46    0.0046    0.0026    0.0045    0.0050    0.0065   -0.0011   -0.0751    0.0862
          47   -0.0017   -0.0022   -0.0005    0.0010    0.0006   -0.0000   -0.0087    0.0168
          48   -0.0020    0.0002    0.0056    0.0011    0.0065   -0.0020    0.0199   -0.0023
          49    0.0007    0.0015   -0.0024    0.0048    0.0106   -0.0035    0.0001    0.0340
          50    0.0021    0.0023   -0.0058    0.0151    0.0049    0.0006   -0.0260   -0.0312
          51    0.0034    0.0026    0.0173   -0.0328    0.0084    0.0027   -0.0082   -0.0040
          52    0.0005   -0.0001    0.0015   -0.0028   -0.0035    0.0011    0.0049   -0.0077
          53   -0.0016   -0.0013    0.0015   -0.0022   -0.0017    0.0012   -0.0029    0.0006
          54   -0.0003   -0.0004    0.0005   -0.0015    0.0000    0.0002   -0.0022    0.0021
          55   -0.0057   -0.0037   -0.0003    0.0043    0.0146   -0.0029    0.0717   -0.0226
          56    0.0160    0.0135    0.0043    0.0065    0.0082    0.0028   -0.0698   -0.0373
          57    0.0132    0.0052   -0.0131   -0.0006   -0.0301    0.0061   -0.0467   -0.0170
          58    0.0021    0.0014    0.0003    0.0001   -0.0020    0.0004    0.0006   -0.0092
          59   -0.0053   -0.0038    0.0011    0.0009    0.0053   -0.0014    0.0227    0.0089
          60   -0.0028   -0.0025   -0.0006    0.0001    0.0016   -0.0004    0.0094    0.0049
          61   -0.0221   -0.0188   -0.0308   -0.0087   -0.0111    0.0188   -0.0939   -0.1304
          62    0.1426    0.0674   -0.0623    0.0421   -0.0608   -0.0094    0.2963    0.2383
          63   -0.0253    0.0127    0.1204    0.0130    0.0932   -0.0467    0.1363    0.1286
          64   -0.0141   -0.0094    0.0030   -0.0048   -0.0084    0.0011    0.0006   -0.0296
          65   -0.0234   -0.0162    0.0031   -0.0172   -0.0026   -0.0018    0.0293    0.0336
          66   -0.0150   -0.0079   -0.0244    0.0268   -0.0047   -0.0023    0.0046    0.0015
          67    0.0041    0.0086   -0.0707    0.1026   -0.0037    0.0024   -0.0130    0.0010
          68    0.0699    0.0347    0.0941   -0.1059    0.0275    0.0035    0.0029    0.0172
          69    0.0249    0.0123    0.0366   -0.0430    0.0096    0.0002   -0.0021   -0.0014
          70    0.1164    0.0748    0.0221    0.0124    0.0368    0.0005   -0.0741   -0.0363
          71   -0.1010   -0.0641   -0.0483    0.0249   -0.0284   -0.0045    0.0656    0.0255
          72    0.0194    0.0109    0.0421   -0.0477    0.0049    0.0032   -0.0047    0.0087
          73   -0.0089   -0.0088    0.0345   -0.0442   -0.0058    0.0042    0.0093   -0.0192
          74    0.0727    0.0536   -0.0525    0.0916    0.0250   -0.0024   -0.0256    0.0647
          75    0.0261    0.0145    0.0404   -0.0426    0.0066    0.0065    0.0040    0.0191


   Root No.      41        42        43        44        45        46        47        48

                41 A      42 A      43 A      44 A      45 A      46 A      47 A      48 A   

                1264.0    1271.0    1273.6    1275.5    1280.7    1302.8    1318.6    1329.3
  
           1   -0.0097   -0.0101   -0.0114   -0.0035    0.0139    0.0224   -0.0064   -0.0049
           2   -0.0056   -0.0096   -0.0171   -0.0032    0.0148    0.0070   -0.0142   -0.0352
           3   -0.0010   -0.0045   -0.0034   -0.0010    0.0036    0.0058    0.0015   -0.0083
           4   -0.0109   -0.0092   -0.0102   -0.0024    0.0121    0.0186   -0.0034    0.0033
           5   -0.1007   -0.0891   -0.0993   -0.0420    0.0315   -0.1421    0.1409    0.2454
           6   -0.0246   -0.0232   -0.0300   -0.0163    0.0156   -0.0168    0.0208    0.0410
           7   -0.0049   -0.0054   -0.0084   -0.0023    0.0021   -0.0096    0.0092    0.0143
           8    0.0005   -0.0031   -0.0043   -0.0011    0.0074    0.0036   -0.0169   -0.0163
           9   -0.0014   -0.0026   -0.0048   -0.0011    0.0041    0.0012   -0.0052   -0.0034
          10   -0.0044   -0.0010   -0.0032   -0.0004   -0.0034   -0.0163    0.0074    0.0090
          11   -0.0305   -0.0714   -0.0864   -0.0236    0.1059    0.1734   -0.0048    0.0309
          12   -0.0081   -0.0188   -0.0213   -0.0072    0.0231    0.0287    0.0062    0.0152
          13   -0.0012   -0.0044   -0.0072   -0.0012    0.0059    0.0106    0.0035   -0.0059
          14    0.0012    0.0062    0.0082    0.0016   -0.0109   -0.0225    0.0055   -0.0006
          15   -0.0009   -0.0011   -0.0017   -0.0006    0.0004   -0.0044    0.0014   -0.0025
          16    0.0261    0.0431    0.0720    0.0227   -0.0466    0.1469    0.0960    0.1436
          17    0.0202    0.0382    0.0616    0.0178   -0.0449    0.0782    0.0678    0.1035
          18    0.0182    0.0312    0.0516    0.0154   -0.0338    0.0867    0.0569    0.0939
          19    0.0014    0.0043    0.0057    0.0008   -0.0051   -0.0213   -0.0146   -0.0099
          20    0.0022    0.0026    0.0047    0.0010   -0.0003    0.0125   -0.0040    0.0081
          21    0.0014    0.0025    0.0030    0.0013   -0.0048   -0.0041    0.0050   -0.0045
          22   -0.0024    0.0085    0.0093    0.0002   -0.0229   -0.0983    0.0045   -0.0237
          23    0.0004    0.0075    0.0073    0.0029   -0.0248   -0.0619    0.0397   -0.0164
          24   -0.0020    0.0072    0.0119   -0.0017   -0.0087   -0.0603   -0.0262    0.0029
          25   -0.0006    0.0097    0.0141    0.0011   -0.0248   -0.0670    0.0218   -0.0008
          26    0.0035    0.0008    0.0002    0.0029   -0.0004    0.0196    0.0062   -0.0079
          27    0.0005    0.0027    0.0057   -0.0024    0.0072    0.0075   -0.0383    0.0155
          28   -0.0111    0.0163    0.0142    0.0120   -0.0127   -0.0010   -0.0047   -0.0062
          29    0.0194    0.0114    0.0116    0.0028   -0.0135   -0.0071    0.0068    0.0193
          30   -0.0039   -0.0122    0.0162   -0.0064   -0.0079   -0.0017   -0.0006    0.0021
          31   -0.0652   -0.0743    0.0701   -0.0311   -0.0196    0.0214   -0.0008   -0.0165
          32   -0.0535   -0.0103    0.0242    0.0021   -0.0122    0.0114    0.0075    0.0042
          33   -0.0917    0.1587   -0.0941    0.1075    0.0138    0.0077    0.0021    0.0098
          34    0.1141    0.0533   -0.0455    0.0102    0.0180   -0.0062    0.0062    0.0095
          35    0.0136   -0.0760    0.1097   -0.0455   -0.0305   -0.0015   -0.0069   -0.0559
          36    0.2297    0.0518   -0.0654   -0.0125    0.0368   -0.0183    0.0175    0.0167
          37    0.2484   -0.0334   -0.0223   -0.0656    0.0299   -0.0156    0.0157    0.0240
          38   -0.0568    0.1155   -0.0485    0.0716    0.0082   -0.0028   -0.0034   -0.0127
          39   -0.0475    0.0004    0.0147    0.0098   -0.0111    0.0036   -0.0047   -0.0066
          40   -0.0004   -0.0006    0.0002    0.0011    0.0004   -0.0004    0.0082   -0.0040
          41    0.0009    0.0009   -0.0006    0.0001    0.0008   -0.0001    0.0040   -0.0019
          42    0.0005    0.0005   -0.0002   -0.0002    0.0003   -0.0000   -0.0006    0.0000
          43    0.0012    0.0023    0.0002   -0.0023    0.0011   -0.0004   -0.0219    0.0119
          44   -0.0006   -0.0010    0.0004    0.0014   -0.0006   -0.0003    0.0130   -0.0072
          45   -0.0010   -0.0009    0.0001    0.0012   -0.0002   -0.0001    0.0111   -0.0051
          46    0.0005    0.0009   -0.0005   -0.0020   -0.0019    0.0003   -0.0153    0.0075
          47    0.0000    0.0001   -0.0002   -0.0003   -0.0004   -0.0001   -0.0027    0.0011
          48   -0.0001   -0.0002   -0.0004    0.0002   -0.0002    0.0004    0.0035   -0.0015
          49    0.0012   -0.0026   -0.0043    0.0058   -0.0033    0.0029    0.0802   -0.0442
          50   -0.0006   -0.0009   -0.0007    0.0009   -0.0004   -0.0007    0.0021    0.0029
          51    0.0003   -0.0007   -0.0013   -0.0010   -0.0017    0.0027   -0.0048    0.0001
          52   -0.0007   -0.0007    0.0004   -0.0005   -0.0002    0.0001   -0.0086    0.0042
          53   -0.0007   -0.0003    0.0003   -0.0007   -0.0000    0.0002   -0.0099    0.0051
          54   -0.0005    0.0001    0.0001    0.0000   -0.0002    0.0001   -0.0022    0.0010
          55   -0.0008    0.0010    0.0018   -0.0023    0.0022    0.0003   -0.0175    0.0102
          56   -0.0009   -0.0007    0.0013   -0.0011    0.0035   -0.0008   -0.0134    0.0093
          57    0.0002    0.0013    0.0026   -0.0006    0.0013   -0.0038   -0.0127    0.0048
          58   -0.0001   -0.0001    0.0001    0.0001    0.0002   -0.0002    0.0006   -0.0002
          59   -0.0000    0.0000    0.0002   -0.0001   -0.0003    0.0006    0.0007   -0.0005
          60    0.0000    0.0001    0.0001   -0.0000   -0.0001    0.0003   -0.0001   -0.0001
          61   -0.0007   -0.0023    0.0020    0.0038    0.0047   -0.0054    0.0138   -0.0080
          62   -0.0004    0.0168    0.0106   -0.0215   -0.0048   -0.0131   -0.1329    0.0584
          63   -0.0003   -0.0007   -0.0060   -0.0047   -0.0020    0.0204   -0.0087    0.0157
          64   -0.0044    0.0087    0.0054   -0.0186    0.0084   -0.0023   -0.0265    0.0162
          65   -0.0018    0.0070    0.0009   -0.0084    0.0044    0.0015    0.0184   -0.0123
          66   -0.0014    0.0015   -0.0089   -0.0115   -0.0175    0.0030    0.0004   -0.0023
          67    0.0444   -0.0866   -0.0038    0.2100   -0.0093   -0.0090   -0.0065    0.0076
          68    0.0272   -0.0669   -0.0547    0.0788   -0.1161    0.0174   -0.0164   -0.0067
          69    0.0035   -0.0134   -0.0255   -0.0070   -0.0536    0.0091   -0.0096   -0.0019
          70   -0.0120    0.0079   -0.0579   -0.0767   -0.1073    0.0262    0.0338   -0.0350
          71    0.0190   -0.0376   -0.0320    0.0595   -0.0709    0.0079   -0.0384    0.0110
          72   -0.0203    0.0564    0.0856   -0.0438    0.1772   -0.0293    0.0362    0.0055
          73    0.0147   -0.0241    0.0186    0.0792    0.0353   -0.0107   -0.0262    0.0203
          74   -0.0093    0.0192    0.0518   -0.0157    0.1013   -0.0174    0.0875   -0.0292
          75    0.0355   -0.0597    0.0569    0.1988    0.1104   -0.0301   -0.0017    0.0215


   Root No.      49        50        51        52        53        54        55        56

                49 A      50 A      51 A      52 A      53 A      54 A      55 A      56 A   

                1365.4    1384.8    1389.5    1434.9    1518.9    1656.0    1670.9    1881.4
  
           1    0.0174   -0.0047   -0.0036    0.0202   -0.0040    0.0161    0.0500   -0.0004
           2   -0.0185    0.0001    0.0038   -0.0476    0.0229   -0.0369   -0.1245    0.0062
           3    0.0023   -0.0007    0.0013   -0.0037    0.0196   -0.0008   -0.0157    0.0031
           4    0.0160   -0.0069   -0.0052    0.0198   -0.0034    0.0146    0.0469    0.0033
           5   -0.0610    0.0323    0.0113    0.0114   -0.0175   -0.0061    0.0298   -0.0003
           6   -0.0148    0.0040    0.0007    0.0099   -0.0665   -0.0019    0.0411   -0.0085
           7   -0.0164    0.0047    0.0039   -0.0384   -0.0110   -0.0441   -0.0501    0.0015
           8   -0.0199   -0.0028   -0.0031   -0.0313   -0.0555   -0.0032    0.1412   -0.0069
           9   -0.0104    0.0005    0.0004   -0.0235   -0.0187   -0.0179    0.0163   -0.0009
          10   -0.0289    0.0050    0.0041   -0.0436   -0.0013   -0.0161   -0.0294    0.0007
          11    0.2163   -0.0221   -0.0176    0.1231   -0.0117   -0.0858   -0.0666    0.0059
          12    0.0368   -0.0029   -0.0025    0.0170   -0.0168   -0.0258   -0.0104   -0.0023
          13   -0.0209    0.0001    0.0027   -0.0158    0.0524    0.1247    0.0218    0.0013
          14    0.0140   -0.0004   -0.0008    0.0561    0.0448    0.0500   -0.0302    0.0026
          15   -0.0013   -0.0002    0.0005    0.0078    0.0323    0.0649    0.0003    0.0009
          16   -0.0115    0.0136    0.0122   -0.0907   -0.0073   -0.0329   -0.0583    0.0035
          17    0.0197    0.0087    0.0063   -0.0107   -0.0027   -0.0483   -0.0589    0.0012
          18   -0.0035    0.0084    0.0062   -0.0316   -0.0195   -0.0421   -0.0376    0.0059
          19   -0.0111   -0.0005   -0.0041    0.0602   -0.0314   -0.0940   -0.0232    0.0002
          20   -0.0047    0.0007   -0.0008   -0.0052   -0.0214   -0.0138    0.0033    0.0019
          21   -0.0038   -0.0001    0.0003    0.0177    0.0057   -0.0370   -0.0111   -0.0028
          22    0.1594   -0.0059   -0.0012   -0.0479   -0.0044   -0.0151   -0.0111   -0.0023
          23    0.1521   -0.0049    0.0051   -0.0947    0.0512    0.0590    0.0034   -0.0047
          24    0.1212   -0.0039   -0.0048   -0.0514   -0.0584   -0.0040    0.0135    0.0045
          25    0.2109   -0.0054    0.0029   -0.1590   -0.0377   -0.0209    0.0165   -0.0101
          26   -0.0880    0.0017   -0.0006    0.0961    0.0255   -0.0266   -0.0213   -0.0042
          27   -0.0050    0.0016   -0.0043    0.0019   -0.0540   -0.0245   -0.0071    0.0045
          28   -0.0023   -0.0150   -0.0087   -0.0028    0.0009    0.0001   -0.0018   -0.0001
          29    0.0046   -0.0317   -0.0210    0.0139   -0.0001    0.0081    0.0149   -0.0016
          30   -0.0009   -0.0091   -0.0073    0.0015   -0.0023    0.0017    0.0022    0.0004
          31    0.0332    0.1320    0.0783    0.0425   -0.0185    0.0172    0.0571    0.0034
          32    0.0295    0.0922    0.0559    0.0408   -0.0098    0.0149    0.0356    0.0013
          33    0.0198    0.0581    0.0496    0.0249   -0.0105    0.0100    0.0314   -0.0094
          34    0.0052    0.0007    0.0038    0.0031    0.0030   -0.0000   -0.0015   -0.0202
          35    0.0057    0.1615    0.0972    0.0023   -0.0025    0.0003   -0.0001   -0.0061
          36    0.0105    0.0775    0.0521    0.0114   -0.0051    0.0015    0.0121   -0.0103
          37    0.0101    0.0491    0.0257    0.0143   -0.0108    0.0029    0.0143    0.0019
          38    0.0124    0.1406    0.0928    0.0169   -0.0220    0.0058    0.0182   -0.0034
          39   -0.0024   -0.0207   -0.0124   -0.0042    0.0047   -0.0007   -0.0118    0.0022
          40    0.0002   -0.0008    0.0001    0.0004    0.0007   -0.0023    0.0021    0.0005
          41   -0.0001   -0.0001    0.0005   -0.0000   -0.0018    0.0017   -0.0004    0.0052
          42    0.0000    0.0002    0.0001    0.0002   -0.0026    0.0013   -0.0007    0.0023
          43    0.0004    0.0020    0.0001   -0.0022    0.0047    0.0009    0.0022    0.1854
          44   -0.0003   -0.0016   -0.0004    0.0026   -0.0136    0.0048   -0.0012    0.1633
          45   -0.0003   -0.0015   -0.0001    0.0008   -0.0005    0.0010   -0.0008    0.0216
          46   -0.0007    0.0012    0.0006   -0.0012    0.0081   -0.0034    0.0011   -0.0440
          47   -0.0000    0.0002    0.0006   -0.0005    0.0047   -0.0047    0.0042    0.1966
          48    0.0001   -0.0003    0.0006   -0.0009    0.0058   -0.0021    0.0021    0.0988
          49   -0.0028   -0.0078    0.0025    0.0081   -0.0229   -0.0080    0.0092   -0.0208
          50    0.0011   -0.0010    0.0068   -0.0096    0.0995   -0.0918    0.0699   -0.0120
          51    0.0008   -0.0006    0.0008   -0.0012    0.0114   -0.0245    0.0245   -0.0026
          52    0.0003    0.0011   -0.0010   -0.0008    0.0030    0.0004   -0.0027   -0.1125
          53    0.0003    0.0010   -0.0008   -0.0012    0.0058   -0.0015   -0.0013   -0.1195
          54    0.0000    0.0000   -0.0002   -0.0001    0.0004   -0.0005    0.0003   -0.0201
          55    0.0015    0.0019   -0.0022   -0.0018   -0.0128    0.0217   -0.0152    0.0081
          56   -0.0003    0.0023   -0.0026    0.0003   -0.0437    0.0720   -0.0529   -0.0189
          57    0.0013    0.0012   -0.0028    0.0046   -0.0349    0.0181   -0.0163   -0.0060
          58    0.0001   -0.0000   -0.0001    0.0001   -0.0011    0.0012   -0.0007    0.0167
          59   -0.0002   -0.0001   -0.0007    0.0007   -0.0031    0.0013   -0.0018   -0.1362
          60   -0.0002   -0.0000   -0.0004    0.0006   -0.0020    0.0002   -0.0007   -0.0658
          61    0.0014   -0.0007   -0.0022    0.0078   -0.0508    0.0380   -0.0327   -0.0202
          62    0.0091    0.0104   -0.0095    0.0036   -0.0165   -0.0131   -0.0036    0.0131
          63   -0.0081    0.0022    0.0050   -0.0198    0.0624    0.0194   -0.0025   -0.0096
          64    0.0005   -0.0114    0.0221   -0.0024    0.0155   -0.0070    0.0043   -0.0017
          65   -0.0006    0.0173   -0.0339    0.0029   -0.0284    0.0177   -0.0123    0.0029
          66    0.0000    0.0016   -0.0011    0.0003   -0.0003    0.0018   -0.0025    0.0014
          67    0.0022    0.0580   -0.0878   -0.0083    0.0324   -0.0138    0.0068    0.0077
          68    0.0020   -0.0687    0.1206    0.0134   -0.0446    0.0153   -0.0055    0.0009
          69    0.0002   -0.0420    0.0728    0.0067   -0.0230    0.0114   -0.0069   -0.0021
          70    0.0026    0.0862   -0.1422   -0.0102    0.0504   -0.0404    0.0300    0.0053
          71    0.0022   -0.0488    0.0919    0.0119   -0.0456    0.0274   -0.0157   -0.0010
          72   -0.0053    0.0147   -0.0448   -0.0090    0.0249   -0.0161    0.0071   -0.0072
          73    0.0008    0.0194   -0.0308   -0.0053    0.0131   -0.0037    0.0016   -0.0030
          74   -0.0069   -0.1119    0.1723    0.0135   -0.0283    0.0067   -0.0048   -0.0100
          75   -0.0013    0.0117   -0.0233   -0.0056    0.0123   -0.0045    0.0006    0.0034


   Root No.      57        58        59        60        61        62        63        64

                57 A      58 A      59 A      60 A      61 A      62 A      63 A      64 A   

                1945.9    2646.8    2652.3    2664.9    2669.0    2691.6    2716.9    2740.0
  
           1    0.0006    0.0030   -0.0005    0.0027    0.0012   -0.0003   -0.0363   -0.0086
           2   -0.0059   -0.0004   -0.0000    0.0004    0.0001   -0.0000    0.0020    0.0018
           3   -0.0029    0.0015    0.0002   -0.0018   -0.0004    0.0000    0.0002   -0.0000
           4   -0.0048   -0.0669    0.0075   -0.0554   -0.0211    0.0031    0.4953    0.1001
           5   -0.0011    0.0032   -0.0007    0.0026    0.0010   -0.0016   -0.0054   -0.0020
           6    0.0072    0.0015    0.0010   -0.0001   -0.0005   -0.0007    0.0030    0.0001
           7   -0.0015    0.0004    0.0000    0.0005    0.0002   -0.0009    0.0122   -0.0113
           8    0.0056   -0.0003   -0.0002   -0.0004   -0.0002   -0.0013    0.0005   -0.0024
           9    0.0014    0.0001   -0.0000   -0.0000   -0.0000   -0.0006    0.0041   -0.0039
          10    0.0030   -0.0002   -0.0009   -0.0015   -0.0004    0.0092   -0.1940    0.1608
          11   -0.0020   -0.0000    0.0001   -0.0001    0.0001   -0.0003   -0.0041   -0.0006
          12   -0.0006   -0.0005   -0.0002   -0.0003   -0.0001    0.0025   -0.0585    0.0475
          13   -0.0040   -0.0002    0.0001    0.0000    0.0000    0.0058   -0.0007    0.0160
          14   -0.0017   -0.0001    0.0001   -0.0001    0.0001   -0.0058    0.0032   -0.0242
          15   -0.0019   -0.0001    0.0001   -0.0001    0.0000    0.0006    0.0009   -0.0031
          16    0.0050    0.0006    0.0000   -0.0008    0.0009   -0.0850    0.0255   -0.2343
          17   -0.0032   -0.0005   -0.0001    0.0013   -0.0014    0.1170   -0.0336    0.3092
          18   -0.0002   -0.0001    0.0000    0.0002   -0.0001    0.0115   -0.0030    0.0277
          19    0.0033    0.0001   -0.0001   -0.0001    0.0005   -0.0144    0.0005   -0.0007
          20    0.0014   -0.0003    0.0002    0.0000   -0.0009    0.0377    0.0012   -0.0111
          21    0.0006    0.0000   -0.0000    0.0001   -0.0006    0.0216    0.0006   -0.0051
          22   -0.0002   -0.0016    0.0006    0.0014   -0.0098    0.3219   -0.0021   -0.0180
          23   -0.0013    0.0010   -0.0004   -0.0012    0.0064   -0.2146    0.0039    0.0055
          24    0.0040    0.0003   -0.0001   -0.0008    0.0041   -0.1294    0.0022    0.0031
          25   -0.0045    0.0010   -0.0008    0.0001    0.0025   -0.1284   -0.0080    0.0525
          26   -0.0052    0.0020   -0.0016    0.0005    0.0047   -0.2649   -0.0183    0.1198
          27    0.0024    0.0010   -0.0008    0.0003    0.0027   -0.1489   -0.0101    0.0675
          28    0.0003   -0.0334    0.0018   -0.0207   -0.0043   -0.0004   -0.0078   -0.0015
          29    0.0021    0.0052   -0.0024    0.0202    0.0035    0.0001    0.0028    0.0010
          30    0.0006    0.0300    0.0026   -0.0273   -0.0049    0.0001   -0.0001    0.0001
          31   -0.0038    0.0729   -0.0198    0.1817    0.0328    0.0006    0.0449    0.0116
          32   -0.0012   -0.1328    0.0316   -0.2822   -0.0504   -0.0009   -0.0718   -0.0185
          33    0.0038    0.0466   -0.0061    0.0528    0.0093    0.0001    0.0165    0.0042
          34    0.0156    0.4163    0.0013    0.0263    0.0118    0.0039    0.0272    0.0016
          35    0.0020    0.0824   -0.0002    0.0159    0.0046    0.0008    0.0101    0.0015
          36    0.0038   -0.1999    0.0005   -0.0324   -0.0099   -0.0021   -0.0137   -0.0005
          37   -0.0013   -0.0644   -0.0045    0.0564    0.0108    0.0001   -0.0052   -0.0019
          38    0.0006   -0.0065   -0.0022    0.0231    0.0043    0.0001    0.0025    0.0003
          39    0.0006   -0.2220   -0.0262    0.3262    0.0629    0.0011   -0.0106   -0.0077
          40   -0.0063   -0.0001   -0.0000   -0.0000   -0.0001    0.0000    0.0000   -0.0001
          41    0.0004   -0.0002   -0.0001    0.0000   -0.0001    0.0000   -0.0001   -0.0002
          42    0.0008   -0.0001   -0.0001    0.0000   -0.0000    0.0000   -0.0000   -0.0001
          43   -0.1617    0.0013    0.0001    0.0000    0.0006   -0.0001   -0.0006   -0.0005
          44   -0.1709    0.0011    0.0002    0.0000    0.0002   -0.0001   -0.0002    0.0000
          45   -0.0303    0.0002    0.0002    0.0000    0.0000   -0.0000    0.0001    0.0001
          46   -0.0290    0.0002    0.0000    0.0000    0.0001    0.0001    0.0001    0.0004
          47    0.2329    0.0001    0.0001   -0.0000    0.0000   -0.0002    0.0001    0.0004
          48    0.1118    0.0000    0.0001   -0.0000   -0.0000   -0.0002    0.0001    0.0002
          49    0.0251   -0.0004   -0.0012    0.0002   -0.0018    0.0000    0.0004    0.0006
          50   -0.0249   -0.0001   -0.0000    0.0006   -0.0022   -0.0002   -0.0002    0.0001
          51   -0.0103   -0.0001   -0.0028   -0.0004    0.0006   -0.0000    0.0005    0.0001
          52    0.0969   -0.0006   -0.0000   -0.0001   -0.0001    0.0000    0.0002    0.0001
          53    0.1033   -0.0006   -0.0001   -0.0000   -0.0002    0.0000    0.0001    0.0001
          54    0.0174   -0.0002   -0.0001   -0.0000   -0.0000    0.0000    0.0000   -0.0000
          55    0.0265    0.0001    0.0004   -0.0000    0.0004    0.0004    0.0011    0.0047
          56    0.0051    0.0001    0.0003   -0.0001    0.0007    0.0004    0.0005    0.0012
          57   -0.0040   -0.0000    0.0002   -0.0000    0.0003    0.0009    0.0003    0.0017
          58    0.0172   -0.0000    0.0000   -0.0000   -0.0000    0.0000    0.0000    0.0000
          59   -0.1414   -0.0001   -0.0000    0.0000   -0.0000    0.0001   -0.0000   -0.0002
          60   -0.0685   -0.0000   -0.0000    0.0000    0.0000    0.0000   -0.0000   -0.0000
          61    0.0112   -0.0010   -0.0053   -0.0000   -0.0046   -0.0094   -0.0150   -0.0607
          62    0.0149   -0.0003   -0.0011   -0.0001   -0.0008   -0.0027   -0.0038   -0.0149
          63    0.0039   -0.0002   -0.0018    0.0001   -0.0019   -0.0033   -0.0056   -0.0212
          64   -0.0034    0.0004   -0.0121    0.0051   -0.0295   -0.0009   -0.0006    0.0000
          65    0.0049    0.0005   -0.0085    0.0043   -0.0219   -0.0008   -0.0005   -0.0001
          66   -0.0002   -0.0001   -0.0451   -0.0054    0.0112    0.0005    0.0005    0.0000
          67   -0.0069    0.0010    0.0653    0.0136   -0.0411   -0.0018   -0.0013   -0.0004
          68    0.0017   -0.0013   -0.1804   -0.0252    0.0528    0.0030    0.0023    0.0009
          69    0.0018    0.0032    0.3917    0.0610   -0.1452   -0.0077   -0.0057   -0.0022
          70   -0.0103   -0.0016    0.1421   -0.0081    0.0824    0.0031    0.0027    0.0013
          71    0.0046   -0.0039    0.2911   -0.0212    0.1809    0.0063    0.0039    0.0018
          72    0.0031   -0.0031    0.1816   -0.0178    0.1397    0.0048    0.0033    0.0015
          73    0.0009   -0.0043   -0.0513   -0.0672    0.3261    0.0093    0.0059   -0.0017
          74    0.0109   -0.0008   -0.0114   -0.0100    0.0466    0.0015    0.0011   -0.0004
          75   -0.0029    0.0016   -0.0046    0.0259   -0.1357   -0.0039   -0.0034    0.0005


   Root No.      65        66        67        68        69

                65 A      66 A      67 A      68 A      69 A   

                2745.3    2753.9    2759.4    2771.5    2773.6
  
           1   -0.0035   -0.0093   -0.0021    0.0033   -0.0037
           2    0.0006    0.0019   -0.0004    0.0024   -0.0030
           3    0.0003   -0.0001   -0.0002    0.0010   -0.0010
           4    0.0416    0.1064    0.0277   -0.0291    0.0353
           5   -0.0007   -0.0041   -0.0012   -0.0001    0.0006
           6   -0.0003    0.0000    0.0001   -0.0009    0.0002
           7   -0.0060   -0.0249   -0.0026    0.0033   -0.0027
           8   -0.0005    0.0010    0.0013   -0.0006    0.0009
           9   -0.0018   -0.0070   -0.0003    0.0008   -0.0005
          10    0.0790    0.3244    0.0340   -0.0400    0.0318
          11   -0.0002    0.0006    0.0004    0.0004   -0.0004
          12    0.0232    0.0967    0.0101   -0.0119    0.0093
          13    0.0034   -0.0098   -0.0057    0.0009   -0.0008
          14   -0.0039    0.0093    0.0037   -0.0009    0.0002
          15   -0.0002    0.0000   -0.0004    0.0000   -0.0002
          16   -0.0406    0.1015    0.0485   -0.0095    0.0045
          17    0.0527   -0.1350   -0.0622    0.0129   -0.0060
          18    0.0042   -0.0123   -0.0051    0.0011   -0.0006
          19    0.0118    0.0012   -0.0217   -0.0018   -0.0001
          20    0.0036    0.0041   -0.0053   -0.0008    0.0001
          21    0.0013    0.0024   -0.0043   -0.0005    0.0002
          22   -0.1001    0.0046    0.1879    0.0148    0.0026
          23    0.0764   -0.0004   -0.1403   -0.0111   -0.0016
          24    0.0445    0.0004   -0.0846   -0.0069   -0.0012
          25   -0.0463   -0.0187    0.0876    0.0083    0.0004
          26   -0.1194   -0.0436    0.2221    0.0206    0.0010
          27   -0.0665   -0.0241    0.1231    0.0113    0.0004
          28   -0.0007   -0.0009   -0.0007    0.0036   -0.0037
          29    0.0007    0.0038   -0.0005    0.0086   -0.0101
          30    0.0001    0.0010   -0.0002    0.0035   -0.0037
[...]
 REDUCED MASS        0.3356         C 16 -- C 19          +7.5% ( 33.7%)     79.6%
 EFFECTIVE MASS      4.8240
 FORCE CONSTANT      0.2085

 VIBRATION         33   33A           ATOM PAIR      ENERGY CONTRIBUTION    RADIAL
 FREQUENCY          1040.81         C 22 -- H 24         +17.4% ( 56.2%)     24.7%
 TRANSITION DIPOLE   0.6896         C 19 -- H 21         +12.6% ( 47.9%)      0.4%
 TRAVEL (Ang.)       0.4716         C 22 -- H 25          +9.6% ( 41.8%)      3.7%
 REDUCED MASS        0.2913         C 22 -- H 23          +9.1% ( 40.7%)      1.7%
 EFFECTIVE MASS      4.5370
 FORCE CONSTANT      0.1859

 VIBRATION         34   34A           ATOM PAIR      ENERGY CONTRIBUTION    RADIAL
 FREQUENCY          1045.92         C  7 -- H  9         +20.8% ( 62.3%)     18.6%
 TRANSITION DIPOLE   0.1965         C  7 -- H  8         +18.8% ( 59.2%)      7.6%
 TRAVEL (Ang.)       0.4316         C  5 -- C  7          +7.9% ( 38.3%)      0.7%
 REDUCED MASS        0.3461         C  7 -- C 19          +6.7% ( 35.4%)      0.8%
 EFFECTIVE MASS      4.4963
 FORCE CONSTANT      0.2231

 VIBRATION         35   35A           ATOM PAIR      ENERGY CONTRIBUTION    RADIAL
 FREQUENCY          1067.13         C 10 -- H 13         +16.5% ( 48.4%)     19.6%
 TRANSITION DIPOLE   0.0902         C 22 -- H 23         +13.9% ( 44.5%)     17.2%
 TRAVEL (Ang.)       0.4676         C 19 -- H 21         +11.0% ( 39.5%)      0.4%
 REDUCED MASS        0.2889         C 10 -- H 12          +9.4% ( 36.5%)      7.5%
 EFFECTIVE MASS      3.8237
 FORCE CONSTANT      0.1939

 VIBRATION         36   36A           ATOM PAIR      ENERGY CONTRIBUTION    RADIAL
 FREQUENCY          1098.36         C 22 -- H 23         +17.9% ( 49.7%)     24.1%
 TRANSITION DIPOLE   0.2140         C 22 -- H 25         +14.0% ( 44.0%)      6.9%
 TRAVEL (Ang.)       0.3691         C  1 -- H  2         +11.3% ( 39.5%)      0.1%
 REDUCED MASS        0.4506         C 17 -- C 22          +9.7% ( 36.7%)      7.8%
 EFFECTIVE MASS      4.4747
 FORCE CONSTANT      0.3202

 VIBRATION         37   37A           ATOM PAIR      ENERGY CONTRIBUTION    RADIAL
 FREQUENCY          1132.29         C  7 -- H  8         +29.2% ( 54.6%)      0.3%
 TRANSITION DIPOLE   0.8300         C  7 -- H  9         +23.0% ( 48.5%)      0.0%
 TRAVEL (Ang.)       0.3964         C 19 -- H 21          +9.5% ( 31.1%)      0.2%
 REDUCED MASS        0.3791         C  7 -- C 19          +6.0% ( 24.8%)      5.0%
 EFFECTIVE MASS      3.3928
 FORCE CONSTANT      0.2863

 VIBRATION         38   38A           ATOM PAIR      ENERGY CONTRIBUTION    RADIAL
 FREQUENCY          1166.02         C  1 -- C 10         +23.0% ( 70.8%)     73.9%
 TRANSITION DIPOLE   0.4553         C  1 -- C  3         +15.9% ( 58.7%)      6.6%
 TRAVEL (Ang.)       0.1999         C  3 -- H  4         +11.0% ( 48.9%)     28.1%
 REDUCED MASS        1.4467         C 10 -- H 12          +8.5% ( 43.1%)     73.3%
 EFFECTIVE MASS      8.4110
 FORCE CONSTANT      1.1589

 VIBRATION         39   39A           ATOM PAIR      ENERGY CONTRIBUTION    RADIAL
 FREQUENCY          1196.98         C 19 -- H 21         +24.4% ( 75.9%)      1.9%
 TRANSITION DIPOLE   1.6122         C 16 -- C 19         +19.2% ( 67.3%)     98.4%
 TRAVEL (Ang.)       0.1744         C  7 -- C 19         +10.8% ( 50.4%)      0.2%
 REDUCED MASS        1.8521         C 17 -- C 19          +9.7% ( 47.8%)     10.0%
 EFFECTIVE MASS      8.9720
 FORCE CONSTANT      1.5635

 VIBRATION         40   40A           ATOM PAIR      ENERGY CONTRIBUTION    RADIAL
 FREQUENCY          1221.69         C 19 -- H 21         +14.4% ( 54.6%)      5.1%
 TRANSITION DIPOLE   1.2669         O 14 -- C 16         +14.2% ( 54.2%)     65.4%
 TRAVEL (Ang.)       0.1984         C 15 -- C 16         +12.3% ( 50.3%)     83.6%
 REDUCED MASS        1.4022         C 16 -- C 19         +10.9% ( 47.5%)     20.5%
 EFFECTIVE MASS      9.1776
 FORCE CONSTANT      1.2330

 VIBRATION         41   41A           ATOM PAIR      ENERGY CONTRIBUTION    RADIAL
 FREQUENCY          1264.03         C 10 -- H 12         +37.0% ( 52.8%)      0.3%
 TRANSITION DIPOLE   0.5690         C 10 -- H 13         +33.7% ( 50.4%)      0.3%
 TRAVEL (Ang.)       0.4101         C 10 -- H 11         +10.5% ( 28.1%)     20.8%
 REDUCED MASS        0.3172         C  1 -- H  2          +8.1% ( 24.7%)      6.8%
 EFFECTIVE MASS      1.4528
 FORCE CONSTANT      0.2986

 VIBRATION         42   42A           ATOM PAIR      ENERGY CONTRIBUTION    RADIAL
 FREQUENCY          1270.96         C 10 -- H 11         +25.7% ( 48.0%)      0.1%
 TRANSITION DIPOLE   0.4023         C 10 -- H 13         +12.6% ( 33.6%)      4.4%
 TRAVEL (Ang.)       0.5323         C 10 -- H 12         +10.6% ( 30.7%)     17.1%
 REDUCED MASS        0.1872         C 22 -- H 23          +9.3% ( 28.8%)      0.0%
 EFFECTIVE MASS      2.1413
 FORCE CONSTANT      0.1782

 VIBRATION         43   43A           ATOM PAIR      ENERGY CONTRIBUTION    RADIAL
 FREQUENCY          1273.56         C 10 -- H 12         +14.7% ( 39.2%)      1.2%
 TRANSITION DIPOLE   0.3656         C 10 -- H 11         +11.6% ( 34.7%)      0.1%
 TRAVEL (Ang.)       0.5355         C  5 -- H  6         +11.2% ( 34.1%)      5.5%
 REDUCED MASS        0.1846         C  1 -- H  2         +11.1% ( 33.9%)     30.4%
 EFFECTIVE MASS      2.8021         C  1 -- C 10         +10.5% ( 33.1%)     90.9%
 FORCE CONSTANT      0.1764

 VIBRATION         44   44A           ATOM PAIR      ENERGY CONTRIBUTION    RADIAL
 FREQUENCY          1275.47         C 22 -- H 23         +33.0% ( 50.4%)      0.9%
 TRANSITION DIPOLE   0.4572         C 22 -- H 25         +30.5% ( 48.5%)      2.2%
 TRAVEL (Ang.)       0.4471         C 22 -- H 24          +8.6% ( 25.7%)     42.7%
 REDUCED MASS        0.2644         C 10 -- H 11          +8.6% ( 25.7%)      0.3%
 EFFECTIVE MASS      1.6103
 FORCE CONSTANT      0.2535

 VIBRATION         45   45A           ATOM PAIR      ENERGY CONTRIBUTION    RADIAL
 FREQUENCY          1280.72         C 22 -- H 24         +28.4% ( 51.7%)      0.1%
 TRANSITION DIPOLE   0.5636         C 22 -- H 25         +14.4% ( 36.8%)      5.3%
 TRAVEL (Ang.)       0.4624         C 22 -- H 23         +10.1% ( 30.8%)     12.7%
 REDUCED MASS        0.2463         C  3 -- H  4          +9.2% ( 29.5%)      0.7%
 EFFECTIVE MASS      2.4827
 FORCE CONSTANT      0.2380

 VIBRATION         46   46A           ATOM PAIR      ENERGY CONTRIBUTION    RADIAL
 FREQUENCY          1302.78         C  5 -- H  6         +23.8% ( 52.1%)      9.1%
 TRANSITION DIPOLE   0.0583         C  3 -- H  4         +18.6% ( 46.1%)      2.3%
 TRAVEL (Ang.)       0.4492         C  1 -- H  2         +14.7% ( 41.0%)     10.6%
 REDUCED MASS        0.2565         C  7 -- H  8         +10.2% ( 34.2%)     23.4%
 EFFECTIVE MASS      2.9186
 FORCE CONSTANT      0.2565

 VIBRATION         47   47A           ATOM PAIR      ENERGY CONTRIBUTION    RADIAL
 FREQUENCY          1318.57         C 17 -- C 22         +20.1% ( 60.3%)     48.1%
 TRANSITION DIPOLE   1.1085         C 15 -- C 17         +18.8% ( 58.4%)     96.9%
 TRAVEL (Ang.)       0.1622         C 17 -- C 19         +18.5% ( 57.9%)     21.5%
 REDUCED MASS        1.9433         C  1 -- H  2          +6.2% ( 33.6%)      1.0%
 EFFECTIVE MASS      7.7041
 FORCE CONSTANT      1.9906

 VIBRATION         48   48A           ATOM PAIR      ENERGY CONTRIBUTION    RADIAL
 FREQUENCY          1329.26         C  1 -- H  2         +29.3% ( 65.7%)      0.3%
 TRANSITION DIPOLE   0.3552         C  5 -- H  6         +14.1% ( 45.6%)      0.1%
 TRAVEL (Ang.)       0.3181         C 17 -- C 22          +8.8% ( 36.1%)     57.5%
 REDUCED MASS        0.5013         C  1 -- C 10          +7.7% ( 33.6%)     77.7%
 EFFECTIVE MASS      4.5747
 FORCE CONSTANT      0.5219

 VIBRATION         49   49A           ATOM PAIR      ENERGY CONTRIBUTION    RADIAL
 FREQUENCY          1365.40         C  3 -- H  4         +27.3% ( 51.6%)      2.8%
 TRANSITION DIPOLE   0.4105         C  7 -- H  8         +24.4% ( 48.8%)      0.1%
 TRAVEL (Ang.)       0.4093         C  7 -- H  9         +20.0% ( 44.2%)      0.8%
 REDUCED MASS        0.2949         C  3 -- C  5          +7.4% ( 26.8%)     73.9%
 EFFECTIVE MASS      2.2378
 FORCE CONSTANT      0.3239

 VIBRATION         50   50A           ATOM PAIR      ENERGY CONTRIBUTION    RADIAL
 FREQUENCY          1384.80         C 10 -- H 12         +24.3% ( 50.2%)      1.4%
 TRANSITION DIPOLE   0.7401         C 10 -- H 11         +22.3% ( 48.1%)      2.2%
 TRAVEL (Ang.)       0.4015         C 10 -- H 13         +18.4% ( 43.7%)      1.4%
 REDUCED MASS        0.3021         C 22 -- H 25          +9.1% ( 30.8%)      1.2%
 EFFECTIVE MASS      2.3112
 FORCE CONSTANT      0.3413

 VIBRATION         51   51A           ATOM PAIR      ENERGY CONTRIBUTION    RADIAL
 FREQUENCY          1389.52         C 22 -- H 25         +22.0% ( 49.5%)      1.5%
 TRANSITION DIPOLE   1.1825         C 22 -- H 24         +21.7% ( 49.1%)      2.1%
 TRAVEL (Ang.)       0.3691         C 22 -- H 23         +20.2% ( 47.3%)      1.7%
 REDUCED MASS        0.3561         C 10 -- H 12          +8.4% ( 30.6%)      1.0%
 EFFECTIVE MASS      2.6548
 FORCE CONSTANT      0.4051

 VIBRATION         52   52A           ATOM PAIR      ENERGY CONTRIBUTION    RADIAL
 FREQUENCY          1434.88         C  5 -- C  7         +15.5% ( 54.5%)     52.8%
 TRANSITION DIPOLE   0.4173         C  3 -- C  5         +15.4% ( 54.2%)     97.4%
 TRAVEL (Ang.)       0.1902         C  7 -- H  9         +13.6% ( 51.0%)      1.6%
 REDUCED MASS        1.2996         C  1 -- C  3         +10.6% ( 45.1%)     48.3%
 EFFECTIVE MASS      8.3074
 FORCE CONSTANT      1.5765

 VIBRATION         53   53A           ATOM PAIR      ENERGY CONTRIBUTION    RADIAL
 FREQUENCY          1518.86         C 17 -- C 19         +19.4% ( 67.1%)     86.5%
 TRANSITION DIPOLE   1.3537         C 17 -- C 22         +14.3% ( 57.6%)     89.7%
 TRAVEL (Ang.)       0.1386         C  3 -- C  5         +12.4% ( 53.7%)     98.2%
 REDUCED MASS        2.3115         C 15 -- C 17         +11.7% ( 52.2%)      3.4%
 EFFECTIVE MASS     10.7638
 FORCE CONSTANT      3.1418

 VIBRATION         54   54A           ATOM PAIR      ENERGY CONTRIBUTION    RADIAL
 FREQUENCY          1655.96         C  5 -- C  7         +24.3% ( 72.2%)     95.1%
 TRANSITION DIPOLE   0.4979         C  3 -- C  5         +14.3% ( 55.4%)     51.1%
 TRAVEL (Ang.)       0.1169         C  5 -- H  6         +12.0% ( 50.7%)      2.1%
 REDUCED MASS        2.9809         C 17 -- C 19         +10.8% ( 48.2%)     97.9%
 EFFECTIVE MASS     11.5976
 FORCE CONSTANT      4.8160

 VIBRATION         55   55A           ATOM PAIR      ENERGY CONTRIBUTION    RADIAL
 FREQUENCY          1670.88         C  1 -- C  3         +33.2% ( 82.7%)     95.3%
 TRANSITION DIPOLE   1.3023         C  3 -- C  5         +14.0% ( 53.6%)     44.3%
 TRAVEL (Ang.)       0.1061         C  3 -- H  4         +12.4% ( 50.5%)      3.9%
 REDUCED MASS        3.5818         C  1 -- C 10         +10.3% ( 46.1%)     46.1%
 EFFECTIVE MASS     11.5051
 FORCE CONSTANT      5.8918

 VIBRATION         56   56A           ATOM PAIR      ENERGY CONTRIBUTION    RADIAL
 FREQUENCY          1881.38         C 15 -- O 18         +24.0% ( 74.4%)     99.6%
 TRANSITION DIPOLE   6.9653         C 16 -- O 20         +20.1% ( 68.0%)     99.7%
 TRAVEL (Ang.)       0.1020         C 15 -- C 16         +17.6% ( 63.6%)      0.4%
 REDUCED MASS        3.4477         C 15 -- C 17         +10.6% ( 49.4%)     59.5%
 EFFECTIVE MASS     13.4278         O 14 -- C 15         +10.3% ( 48.7%)     13.6%
 FORCE CONSTANT      7.1901

 VIBRATION         57   57A           ATOM PAIR      ENERGY CONTRIBUTION    RADIAL
 FREQUENCY          1945.94         C 16 -- O 20         +22.6% ( 72.1%)    100.0%
 TRANSITION DIPOLE   2.9552         C 15 -- C 16         +20.2% ( 68.2%)    100.0%
 TRAVEL (Ang.)       0.0993         C 15 -- O 18         +18.5% ( 65.3%)    100.0%
 REDUCED MASS        3.5130         C 16 -- C 19         +10.5% ( 49.2%)     55.9%
 EFFECTIVE MASS     13.2428         O 14 -- C 16         +10.3% ( 48.7%)     27.2%
 FORCE CONSTANT      7.8376

 VIBRATION         58   58A           ATOM PAIR      ENERGY CONTRIBUTION    RADIAL
 FREQUENCY          2646.80         C 10 -- H 12         +70.6% ( 86.7%)     99.7%
 TRANSITION DIPOLE   0.6406         C 10 -- H 13         +18.1% ( 44.0%)     88.6%
 TRAVEL (Ang.)       0.2145         C 10 -- H 11          +9.0% ( 30.9%)     75.3%
 REDUCED MASS        0.5537         C  1 -- H  2          +1.4% ( 12.1%)     99.4%
 EFFECTIVE MASS      1.4356
 FORCE CONSTANT      2.2853

 VIBRATION         59   59A           ATOM PAIR      ENERGY CONTRIBUTION    RADIAL
 FREQUENCY          2652.26         C 22 -- H 23         +56.0% ( 77.2%)     98.7%
 TRANSITION DIPOLE   0.6214         C 22 -- H 24         +41.0% ( 66.1%)     96.8%
 TRAVEL (Ang.)       0.2266         C 22 -- H 25          +1.4% ( 12.4%)     17.1%
 REDUCED MASS        0.4953         C 17 -- C 22          +0.8% (  9.5%)      0.2%
 EFFECTIVE MASS      1.4354
 FORCE CONSTANT      2.0530

 VIBRATION         60   60A           ATOM PAIR      ENERGY CONTRIBUTION    RADIAL
 FREQUENCY          2664.90         C 10 -- H 11         +47.5% ( 71.1%)     98.4%
 TRANSITION DIPOLE   0.7233         C 10 -- H 13         +44.7% ( 69.0%)     97.4%
 TRAVEL (Ang.)       0.2399         C 22 -- H 25          +2.2% ( 15.3%)     98.8%
 REDUCED MASS        0.4396         C 22 -- H 23          +1.8% ( 13.9%)     95.9%
 EFFECTIVE MASS      1.4400
 FORCE CONSTANT      1.8392

 VIBRATION         61   61A           ATOM PAIR      ENERGY CONTRIBUTION    RADIAL
 FREQUENCY          2669.01         C 22 -- H 25         +57.1% ( 77.9%)     99.4%
 TRANSITION DIPOLE   0.5997         C 22 -- H 24         +26.4% ( 52.9%)     92.7%
 TRAVEL (Ang.)       0.2440         C 22 -- H 23         +11.7% ( 35.3%)     79.9%
 REDUCED MASS        0.4245         C 10 -- H 13          +1.8% ( 13.8%)     97.3%
 EFFECTIVE MASS      1.4470
 FORCE CONSTANT      1.7815

 VIBRATION         62   62A           ATOM PAIR      ENERGY CONTRIBUTION    RADIAL
 FREQUENCY          2691.61         C  7 -- H  8         +54.5% ( 76.4%)     99.0%
 TRANSITION DIPOLE   0.4050         C  7 -- H  9         +36.8% ( 62.8%)     97.6%
 TRAVEL (Ang.)       0.2336         C  5 -- H  6          +6.5% ( 26.4%)     99.9%
 REDUCED MASS        0.4592         C  5 -- C  7          +1.0% ( 10.6%)      2.6%
 EFFECTIVE MASS      1.4722
 FORCE CONSTANT      1.9603

 VIBRATION         63   63A           ATOM PAIR      ENERGY CONTRIBUTION    RADIAL
 FREQUENCY          2716.87         C  1 -- H  2         +80.7% ( 90.9%)    100.0%
 TRANSITION DIPOLE   0.5689         C  3 -- H  4         +13.5% ( 37.3%)     99.9%
 TRAVEL (Ang.)       0.1949         C 10 -- H 11          +2.4% ( 15.8%)     98.4%
 REDUCED MASS        0.6535         C  1 -- C  3          +1.1% ( 10.6%)     29.9%
 EFFECTIVE MASS      1.3678
 FORCE CONSTANT      2.8422

 VIBRATION         64   64A           ATOM PAIR      ENERGY CONTRIBUTION    RADIAL
 FREQUENCY          2740.03         C  5 -- H  6         +68.4% ( 83.5%)    100.0%
 TRANSITION DIPOLE   0.7172         C  3 -- H  4         +12.7% ( 36.0%)     99.9%
 TRAVEL (Ang.)       0.2261         C  7 -- H  9          +9.8% ( 31.6%)     99.9%
 REDUCED MASS        0.4815         C  1 -- H  2          +4.6% ( 21.6%)     99.6%
 EFFECTIVE MASS      1.3821
 FORCE CONSTANT      2.1300

 VIBRATION         65   65A           ATOM PAIR      ENERGY CONTRIBUTION    RADIAL
 FREQUENCY          2745.34         C 19 -- H 21         +73.2% ( 86.7%)    100.0%
 TRANSITION DIPOLE   0.6634         C  7 -- H  9          +9.3% ( 30.9%)     96.0%
 TRAVEL (Ang.)       0.2129         C  7 -- H  8          +7.9% ( 28.5%)     94.8%
 REDUCED MASS        0.5421         C  3 -- H  4          +3.2% ( 18.1%)    100.0%
 EFFECTIVE MASS      1.3840
 FORCE CONSTANT      2.4071

 VIBRATION         66   66A           ATOM PAIR      ENERGY CONTRIBUTION    RADIAL
 FREQUENCY          2753.90         C  3 -- H  4         +65.8% ( 81.5%)    100.0%
 TRANSITION DIPOLE   0.9773         C  5 -- H  6         +16.5% ( 40.8%)     99.8%
 TRAVEL (Ang.)       0.2334         C  1 -- H  2          +6.5% ( 25.7%)     99.4%
 REDUCED MASS        0.4494         C 19 -- H 21          +3.0% ( 17.5%)    100.0%
 EFFECTIVE MASS      1.3937
 FORCE CONSTANT      2.0081

 VIBRATION         67   67A           ATOM PAIR      ENERGY CONTRIBUTION    RADIAL
 FREQUENCY          2759.37         C  7 -- H  9         +39.7% ( 62.6%)     95.8%
 TRANSITION DIPOLE   1.1917         C  7 -- H  8         +33.9% ( 57.9%)     94.7%
 TRAVEL (Ang.)       0.2808         C 19 -- H 21         +18.4% ( 42.6%)     99.9%
 REDUCED MASS        0.3099         C  5 -- H  6          +3.6% ( 18.9%)     99.0%
 EFFECTIVE MASS      1.2997
 FORCE CONSTANT      1.3905

 VIBRATION         68   68A           ATOM PAIR      ENERGY CONTRIBUTION    RADIAL
 FREQUENCY          2771.54         C 22 -- H 25         +20.6% ( 43.6%)     96.4%
 TRANSITION DIPOLE   0.5188         C 10 -- H 11         +16.1% ( 38.6%)     95.8%
 TRAVEL (Ang.)       0.4004         C 10 -- H 13         +15.9% ( 38.4%)     95.6%
 REDUCED MASS        0.1518         C 22 -- H 23         +15.2% ( 37.6%)     94.5%
 EFFECTIVE MASS      1.1631         C 22 -- H 24         +14.9% ( 37.1%)     94.3%
 FORCE CONSTANT      0.6869         C 10 -- H 12         +11.9% ( 33.1%)     93.7%

 VIBRATION         69   69A           ATOM PAIR      ENERGY CONTRIBUTION    RADIAL
 FREQUENCY          2773.60         C 10 -- H 11         +19.9% ( 42.8%)     96.4%
 TRANSITION DIPOLE   0.5918         C 22 -- H 25         +18.1% ( 40.8%)     96.2%
 TRAVEL (Ang.)       0.3912         C 10 -- H 13         +17.2% ( 39.9%)     95.3%
 REDUCED MASS        0.1588         C 22 -- H 24         +15.5% ( 37.8%)     95.5%
 EFFECTIVE MASS      1.1556         C 22 -- H 23         +13.3% ( 35.1%)     94.2%
 FORCE CONSTANT      0.7199         C 10 -- H 12         +13.2% ( 34.9%)     93.7%

           FORCE CONSTANT IN CARTESIAN COORDINATES (Millidynes/A)

    ATOM   CHEMICAL       X               Y               Z
   NUMBER   SYMBOL  FORCE CONSTANT  FORCE CONSTANT  FORCE CONSTANT

      1       C        8.360419       11.073124        2.030332
      2       H        4.139740        0.919888        0.548748
      3       C        8.702600       11.151709        3.605673
      4       H        3.918636        0.934379        0.728483
      5       C        9.947521        9.075313        4.317507
      6       H        2.060584        2.947327        0.520871
      7       C       10.423724        5.203837        2.908720
      8       H        2.786025        1.663961        0.997073
      9       H        1.173358        2.993238        1.278878
     10       C        6.502166        7.431569        6.082115
     11       H        1.662229        3.029230        0.695737
     12       H        3.264339        0.820345        1.264573
     13       H        0.672977        0.691002        3.932676
     14       O        6.122079        5.544974        1.551155
     15       C       11.700973       10.909609        3.124063
     16       C        6.210911       14.561338        5.438970
     17       C        8.434265       11.828300        2.217737
     18       O        7.089180        8.238443        0.767890
     19       C        8.681643        7.210589        3.395236
     20       O        1.088007       11.965300        3.073330
     21       H        3.669741        0.892390        0.965082
     22       C        6.825489        7.305024        6.039225
     23       H        0.689581        1.185057        3.449664
     24       H        1.170454        2.666655        1.545566
     25       H        3.534247        0.814387        1.062517

 **********************
 *                    *
 * JOB ENDED NORMALLY *
 *                    *
 **********************



 TOTAL JOB TIME:             1.58 SECONDS

 == MOPAC DONE ==
