 *******************************************************************************
 ** Site#: 36969        For non-commercial use only    Version 21.051W 64BITS **
 *******************************************************************************
 ** Cite this program as: MOPAC2016, Version: 21.051W, James J. P. Stewart,   **
 ** Stewart Computational Chemistry, web: HTTP://OpenMOPAC.net. Days left: 295**
 *******************************************************************************
 **                                                                           **
 **                                MOPAC2016                                  **
 **                                                                           **
 *******************************************************************************

                              PM7 CALCULATION RESULTS

 *******************************************************************************
 *  CALCULATION DONE:                                Sat May  1 14:35:24 2021  *
 *  PM7        - The PM7 Hamiltonian to be used
 *  FORCE      - FORCE CALCULATION SPECIFIED
 *  T=         - A TIME OF 172800.0 SECONDS REQUESTED
 *  DUMP=N     - RESTART FILE WRITTEN EVERY 7200.0 SECONDS REQUESTED
 *******************************************************************************
PM7 FORCE
 TS_5_FREQ

   ATOM   CHEMICAL          X               Y               Z
  NUMBER   SYMBOL      (ANGSTROMS)     (ANGSTROMS)     (ANGSTROMS)
 
     1       C          0.28817254  *  -0.68648898  *   1.86435414  *
     2       H          1.37910087  *  -0.70705277  *   1.84251049  *
     3       C         -0.40720230  *   0.50287842  *   1.91527224  *
     4       H         -1.45144596  *   0.50360727  *   2.23993696  *
     5       C          0.13310081  *   1.69683242  *   1.41786462  *
     6       H         -0.51459185  *   2.57794560  *   1.36670797  *
     7       C          1.38555122  *   1.73793768  *   0.82751767  *
     8       H          2.19516071  *   1.09322954  *   1.15418865  *
     9       H          1.73934458  *   2.64753969  *   0.35165085  *
    10       C         -0.37714277  *  -1.96074536  *   2.24601654  *
    11       H          0.20344128  *  -2.85080765  *   1.96870760  *
    12       H         -0.54036438  *  -2.01609922  *   3.33403713  *
    13       H         -1.36980450  *  -2.07235415  *   1.77321838  *
    14       O         -1.24004504  *   0.46067641  *  -1.18832255  *
    15       C         -0.83223971  *  -0.78466329  *  -0.66410919  *
    16       C         -0.12666908  *   1.29366524  *  -1.32980248  *
    17       C          0.63003179  *  -0.71467344  *  -0.42025701  *
    18       O         -1.64741155  *  -1.64384015  *  -0.52371901  *
    19       C          1.06428281  *   0.55618180  *  -0.80525920  *
    20       O         -0.24592613  *   2.38057842  *  -1.80450265  *
    21       H          2.05142313  *   0.78807911  *  -1.18293857  *
    22       C          1.46290559  *  -1.93411810  *  -0.43501127  *
    23       H          1.01683388  *  -2.76782092  *   0.13040965  *
    24       H          1.58370127  *  -2.30379863  *  -1.46924034  *
    25       H          2.47276514  *  -1.76386032  *  -0.03507750  *
 


          CARTESIAN COORDINATES 

    NO.       ATOM           X           Y           Z

     1         C          0.2882     -0.6865      1.8644
     2         H          1.3791     -0.7071      1.8425
     3         C         -0.4072      0.5029      1.9153
     4         H         -1.4514      0.5036      2.2399
     5         C          0.1331      1.6968      1.4179
     6         H         -0.5146      2.5779      1.3667
     7         C          1.3856      1.7379      0.8275
     8         H          2.1952      1.0932      1.1542
     9         H          1.7393      2.6475      0.3517
    10         C         -0.3771     -1.9607      2.2460
    11         H          0.2034     -2.8508      1.9687
    12         H         -0.5404     -2.0161      3.3340
    13         H         -1.3698     -2.0724      1.7732
    14         O         -1.2400      0.4607     -1.1883
    15         C         -0.8322     -0.7847     -0.6641
    16         C         -0.1267      1.2937     -1.3298
    17         C          0.6300     -0.7147     -0.4203
    18         O         -1.6474     -1.6438     -0.5237
    19         C          1.0643      0.5562     -0.8053
    20         O         -0.2459      2.3806     -1.8045
    21         H          2.0514      0.7881     -1.1829
    22         C          1.4629     -1.9341     -0.4350
    23         H          1.0168     -2.7678      0.1304
    24         H          1.5837     -2.3038     -1.4692
    25         H          2.4728     -1.7639     -0.0351

 General Reference for PM7:
 "Optimization of Parameters for Semiempirical Methods VI: More Modifications to the 
 NDDO Approximations and Re-optimization of Parameters", J. J. P. Stewart, J. Mol. Mod., 1:32, 19 (2013)
 https://link.springer.com/article/10.1007/s00894-012-1667-x

           Empirical Formula: C10 H12 O3  =    25 atoms



      MOLECULAR POINT GROUP   :   C1  


      RHF CALCULATION, NO. OF DOUBLY OCCUPIED LEVELS = 35



          HEAT OF FORMATION =     -60.108401 KCALS/MOLE


          CARTESIAN COORDINATE DERIVATIVES

   NUMBER  ATOM         X            Y            Z

     1       C     -0.128654     0.084375    -0.109428
     2       H     -0.250783     0.106947     0.393392
     3       C     -0.105145    -0.366277     0.305705
     4       H      0.252000    -0.330872     0.114386
     5       C      0.470954     0.458356    -0.099612
     6       H     -0.047176    -0.160954    -0.598027
     7       C     -0.438719    -0.189188     0.065399
     8       H     -0.306905    -0.356336    -0.761728
     9       H     -0.086198    -0.551448    -0.584904
    10       C      0.090981    -0.055885     0.020756
    11       H     -0.117141    -0.091475    -0.237872
    12       H      0.051338    -0.657781    -0.036474
    13       H      0.310416     0.436149    -0.160712
    14       O     -0.169423     0.235224     0.218009
    15       C     -0.173150     0.061178    -0.176699
    16       C      0.216596     0.087662    -0.246653
    17       C      0.096753     0.157804     0.418206
    18       O      0.342236    -0.060685     0.003506
    19       C     -0.094093    -0.269937    -0.459278
    20       O      0.454897     0.215628     0.259188
    21       H     -0.078004     0.332437     0.597388
    22       C     -0.002257     0.378298     0.489906
    23       H      0.197059    -0.022999     0.292050
    24       H     -0.894340     0.476130     0.243879
    25       H      0.408749     0.083645     0.049612
 


          GRADIENT NORM =   2.74648

          MOLECULAR WEIGHT =  180.20



          ROTATIONAL CONSTANTS IN CM(-1)

          A =    0.03792115   B =    0.02726754   C =    0.02276545



           PRINCIPAL MOMENTS OF INERTIA IN UNITS OF 10**(-40)*GRAM-CM**2

          A =      738.1837   B =     1026.5970   C =     1229.6168


          ORIENTATION OF MOLECULE IN FORCE CALCULATION

    NO.       ATOM         X         Y         Z

     1          C       0.2803   -0.6724    1.8324
     2          H       1.3716   -0.6724    1.8324
     3          C      -0.4383    0.5042    1.8324
     4          H      -1.4886    0.4947    2.1366
     5          C       0.0893    1.6924    1.3083
     6          H      -0.5737    2.5588    1.2169
     7          C       1.3523    1.7396    0.7414
     8          H       2.1672    1.1212    1.1038
     9          H       1.6984    2.6407    0.2441
    10          C      -0.3684   -1.9469    2.2410
    11          H       0.2343   -2.8337    2.0031
    12          H      -0.5523   -1.9716    3.3268
    13          H      -1.3491   -2.0924    1.7527
    14          O      -1.2079    0.3495   -1.2839
    15          C      -0.7873   -0.8708   -0.7130
    16          C      -0.1078    1.1992   -1.4298
    17          C       0.6683   -0.7649   -0.4431
    18          O      -1.5887   -1.7409   -0.5615
    19          C       1.0861    0.5016   -0.8593
    20          O      -0.2380    2.2683   -1.9407
    21          H       2.0761    0.7409   -1.2249
    22          C       1.5241   -1.9677   -0.4033
    23          H       1.0826   -2.7920    0.1792
    24          H       1.6725   -2.3669   -1.4229
    25          H       2.5224   -1.7655    0.0106


    FIRST DERIVATIVES WILL BE USED IN THE CALCULATION OF SECOND DERIVATIVES

          ESTIMATED TIME TO COMPLETE CALCULATION =        2.34 SECONDS

    FOR POINT-GROUP C1   THERE ARE   1 UNIQUE SYMMETRY FUNCTIONS.

 STEP:   1 TIME =     0.03 SECS, INTEGRAL =      0.03 TIME LEFT: 172799.96
 STEP:   2 TIME =     0.02 SECS, INTEGRAL =      0.05 TIME LEFT: 172799.93
 STEP:   3 TIME =     0.02 SECS, INTEGRAL =      0.07 TIME LEFT: 172799.91
 STEP:   4 TIME =     0.02 SECS, INTEGRAL =      0.09 TIME LEFT: 172799.90
 STEP:   5 TIME =     0.02 SECS, INTEGRAL =      0.10 TIME LEFT: 172799.88
 STEP:   6 TIME =     0.02 SECS, INTEGRAL =      0.12 TIME LEFT: 172799.87
 STEP:   7 TIME =     0.02 SECS, INTEGRAL =      0.13 TIME LEFT: 172799.85
 STEP:   8 TIME =     0.02 SECS, INTEGRAL =      0.15 TIME LEFT: 172799.83
 STEP:   9 TIME =     0.02 SECS, INTEGRAL =      0.17 TIME LEFT: 172799.81
 STEP:  10 TIME =     0.02 SECS, INTEGRAL =      0.19 TIME LEFT: 172799.80
 STEP:  11 TIME =     0.02 SECS, INTEGRAL =      0.20 TIME LEFT: 172799.78
 STEP:  12 TIME =     0.02 SECS, INTEGRAL =      0.22 TIME LEFT: 172799.77
 STEP:  13 TIME =     0.04 SECS, INTEGRAL =      0.25 TIME LEFT: 172799.73
 STEP:  14 TIME =     0.02 SECS, INTEGRAL =      0.28 TIME LEFT: 172799.71
 STEP:  15 TIME =     0.02 SECS, INTEGRAL =      0.30 TIME LEFT: 172799.69
 STEP:  16 TIME =     0.02 SECS, INTEGRAL =      0.31 TIME LEFT: 172799.67
 STEP:  17 TIME =     0.02 SECS, INTEGRAL =      0.33 TIME LEFT: 172799.66
 STEP:  18 TIME =     0.02 SECS, INTEGRAL =      0.34 TIME LEFT: 172799.64
 STEP:  19 TIME =     0.02 SECS, INTEGRAL =      0.36 TIME LEFT: 172799.62
 STEP:  20 TIME =     0.02 SECS, INTEGRAL =      0.38 TIME LEFT: 172799.60
 STEP:  21 TIME =     0.02 SECS, INTEGRAL =      0.40 TIME LEFT: 172799.58
 STEP:  22 TIME =     0.02 SECS, INTEGRAL =      0.42 TIME LEFT: 172799.56
 STEP:  23 TIME =     0.02 SECS, INTEGRAL =      0.44 TIME LEFT: 172799.55
 STEP:  24 TIME =     0.02 SECS, INTEGRAL =      0.45 TIME LEFT: 172799.53
 STEP:  25 TIME =     0.02 SECS, INTEGRAL =      0.47 TIME LEFT: 172799.52
 STEP:  26 TIME =     0.02 SECS, INTEGRAL =      0.49 TIME LEFT: 172799.49
 STEP:  27 TIME =     0.03 SECS, INTEGRAL =      0.52 TIME LEFT: 172799.46
 STEP:  28 TIME =     0.03 SECS, INTEGRAL =      0.55 TIME LEFT: 172799.43
 STEP:  29 TIME =     0.03 SECS, INTEGRAL =      0.59 TIME LEFT: 172799.40
 STEP:  30 TIME =     0.03 SECS, INTEGRAL =      0.61 TIME LEFT: 172799.37
 STEP:  31 TIME =     0.03 SECS, INTEGRAL =      0.64 TIME LEFT: 172799.34
 STEP:  32 TIME =     0.03 SECS, INTEGRAL =      0.67 TIME LEFT: 172799.32
 STEP:  33 TIME =     0.02 SECS, INTEGRAL =      0.69 TIME LEFT: 172799.30
 STEP:  34 TIME =     0.02 SECS, INTEGRAL =      0.71 TIME LEFT: 172799.27
 STEP:  35 TIME =     0.02 SECS, INTEGRAL =      0.73 TIME LEFT: 172799.25
 STEP:  36 TIME =     0.02 SECS, INTEGRAL =      0.75 TIME LEFT: 172799.23
 STEP:  37 TIME =     0.02 SECS, INTEGRAL =      0.77 TIME LEFT: 172799.22
 STEP:  38 TIME =     0.01 SECS, INTEGRAL =      0.78 TIME LEFT: 172799.21
 STEP:  39 TIME =     0.01 SECS, INTEGRAL =      0.79 TIME LEFT: 172799.20
 STEP:  40 TIME =     0.03 SECS, INTEGRAL =      0.82 TIME LEFT: 172799.17
 STEP:  41 TIME =     0.02 SECS, INTEGRAL =      0.84 TIME LEFT: 172799.15
 STEP:  42 TIME =     0.02 SECS, INTEGRAL =      0.85 TIME LEFT: 172799.13
 STEP:  43 TIME =     0.02 SECS, INTEGRAL =      0.87 TIME LEFT: 172799.12
 STEP:  44 TIME =     0.02 SECS, INTEGRAL =      0.88 TIME LEFT: 172799.10
 STEP:  45 TIME =     0.02 SECS, INTEGRAL =      0.90 TIME LEFT: 172799.09
 STEP:  46 TIME =     0.03 SECS, INTEGRAL =      0.93 TIME LEFT: 172799.06
 STEP:  47 TIME =     0.02 SECS, INTEGRAL =      0.95 TIME LEFT: 172799.04
 STEP:  48 TIME =     0.02 SECS, INTEGRAL =      0.96 TIME LEFT: 172799.02
 STEP:  49 TIME =     0.02 SECS, INTEGRAL =      0.98 TIME LEFT: 172799.00
 STEP:  50 TIME =     0.02 SECS, INTEGRAL =      1.00 TIME LEFT: 172798.98
 STEP:  51 TIME =     0.02 SECS, INTEGRAL =      1.02 TIME LEFT: 172798.96
 STEP:  52 TIME =     0.02 SECS, INTEGRAL =      1.04 TIME LEFT: 172798.95
 STEP:  53 TIME =     0.02 SECS, INTEGRAL =      1.05 TIME LEFT: 172798.93
 STEP:  54 TIME =     0.02 SECS, INTEGRAL =      1.08 TIME LEFT: 172798.91
 STEP:  55 TIME =     0.03 SECS, INTEGRAL =      1.11 TIME LEFT: 172798.88
 STEP:  56 TIME =     0.04 SECS, INTEGRAL =      1.15 TIME LEFT: 172798.84
 STEP:  57 TIME =     0.03 SECS, INTEGRAL =      1.18 TIME LEFT: 172798.81
 STEP:  58 TIME =     0.02 SECS, INTEGRAL =      1.20 TIME LEFT: 172798.79
 STEP:  59 TIME =     0.03 SECS, INTEGRAL =      1.23 TIME LEFT: 172798.76
 STEP:  60 TIME =     0.02 SECS, INTEGRAL =      1.25 TIME LEFT: 172798.74
 STEP:  61 TIME =     0.02 SECS, INTEGRAL =      1.27 TIME LEFT: 172798.72
 STEP:  62 TIME =     0.02 SECS, INTEGRAL =      1.28 TIME LEFT: 172798.70
 STEP:  63 TIME =     0.02 SECS, INTEGRAL =      1.30 TIME LEFT: 172798.69
 STEP:  64 TIME =     0.02 SECS, INTEGRAL =      1.31 TIME LEFT: 172798.67
 STEP:  65 TIME =     0.02 SECS, INTEGRAL =      1.33 TIME LEFT: 172798.65
 STEP:  66 TIME =     0.02 SECS, INTEGRAL =      1.36 TIME LEFT: 172798.63
 STEP:  67 TIME =     0.02 SECS, INTEGRAL =      1.37 TIME LEFT: 172798.61
 STEP:  68 TIME =     0.01 SECS, INTEGRAL =      1.38 TIME LEFT: 172798.60
 STEP:  69 TIME =     0.02 SECS, INTEGRAL =      1.40 TIME LEFT: 172798.59
 STEP:  70 TIME =     0.02 SECS, INTEGRAL =      1.41 TIME LEFT: 172798.57
 STEP:  71 TIME =     0.01 SECS, INTEGRAL =      1.43 TIME LEFT: 172798.56
 STEP:  72 TIME =     0.02 SECS, INTEGRAL =      1.44 TIME LEFT: 172798.54
 STEP:  73 TIME =     0.02 SECS, INTEGRAL =      1.46 TIME LEFT: 172798.53
 STEP:  74 TIME =     0.01 SECS, INTEGRAL =      1.47 TIME LEFT: 172798.52
 STEP:  75 TIME =     0.02 SECS, INTEGRAL =      1.48 TIME LEFT: 172798.50

(To convert to Hartree/Bohr^2, multiply by (10^(-21) x N x a0^2)/(4.184 x 627.51) =  0.0642)


           FORCE MATRIX IN MILLIDYNES/ANGSTROM


                  C  1       H  2       C  3       H  4       C  5       H  6
 ------------------------------------------------------------------------------
     C    1  14.374961
     H    2   3.397636   4.285558
     C    3   6.954325   0.763591  15.139358
     H    4   0.790475   0.087413   3.430933   4.358067
     C    5   2.113958   0.172985   5.552638   0.766060  14.972814
     H    6   0.096207   0.005299   0.756552   0.032985   3.426196   4.326538
     C    7   1.302582   0.144207   2.283650   0.096267   6.762847   0.768422
     H    8   0.141497   0.026181   0.188842   0.005957   0.782545   0.079608
     H    9   0.025945   0.005348   0.097840   0.007771   0.751920   0.043312
     C   10   3.898710   0.670594   0.892556   0.055952   0.136312   0.013013
     H   11   0.720163   0.020297   0.044132   0.003209   0.016290   0.002182
     H   12   0.730613   0.017464   0.028364   0.013899   0.016387   0.002032
     H   13   0.730806   0.038079   0.037134   0.018342   0.026431   0.002483
     O   14   0.068337   0.007384   0.049822   0.015043   0.069713   0.025765
     C   15   0.349508   0.041246   0.271139   0.029459   0.295554   0.048131
     C   16   0.174622   0.020345   0.153352   0.028424   0.171221   0.037835
     C   17   1.612874   0.383562   1.673065   0.042325   1.574064   0.051394
     O   18   0.096292   0.011038   0.104659   0.014740   0.092151   0.012143
     C   19   1.432124   0.152506   1.696795   0.039286   2.172678   0.067542
     O   20   0.035800   0.007754   0.042134   0.009118   0.057030   0.021307
     H   21   0.140217   0.014685   0.166539   0.004828   0.192563   0.008143
     C   22   0.293189   0.036006   0.121827   0.008174   0.125074   0.009306
     H   23   0.035797   0.014328   0.020259   0.002277   0.015989   0.002189
     H   24   0.026969   0.002284   0.017376   0.000720   0.017458   0.000990
     H   25   0.012610   0.021215   0.013071   0.001749   0.012884   0.002472


                  C  7       H  8       H  9       C 10       H 11       H 12
 ------------------------------------------------------------------------------
     C    7  12.932076
     H    8   3.465338   4.237510
     H    9   3.504095   0.442596   4.260377
     C   10   0.066844   0.009835   0.008737  11.612989
     H   11   0.014309   0.002397   0.001530   3.399461   4.192942
     H   12   0.006029   0.001929   0.000955   3.347340   0.460444   4.166134
     H   13   0.025368   0.002913   0.002043   3.329940   0.450033   0.455199
     O   14   0.163732   0.009810   0.017291   0.054654   0.013652   0.006798
     C   15   0.451609   0.040968   0.024842   0.143853   0.031847   0.016983
     C   16   0.457126   0.020670   0.065536   0.050942   0.011385   0.008359
     C   17   1.827118   0.164918   0.047222   0.122423   0.012834   0.013451
     O   18   0.107457   0.014399   0.008025   0.106211   0.016973   0.009526
     C   19   2.448509   0.533112   0.262524   0.053448   0.013266   0.003812
     O   20   0.055335   0.007061   0.029895   0.022575   0.005342   0.004229
     H   21   0.564940   0.028657   0.029047   0.006196   0.001915   0.001100
     C   22   0.146387   0.018419   0.007258   0.066646   0.019189   0.004572
     H   23   0.021632   0.003359   0.002142   0.027098   0.027579   0.003012
     H   24   0.020272   0.001946   0.000917   0.007140   0.002976   0.000796
     H   25   0.018158   0.005230   0.002130   0.010870   0.005998   0.002313


                  H 13       O 14       C 15       C 16       C 17       O 18
 ------------------------------------------------------------------------------
     H   13   4.135540
     O   14   0.031072   8.965279
     C   15   0.115271   3.221895  18.578806
     C   16   0.025800   3.541006   2.371421  18.760656
     C   17   0.033491   1.195083   3.171133   1.288676  14.951526
     O   18   0.058545   1.831153  12.661799   0.421533   1.114125  14.704796
     C   19   0.024359   1.215605   1.475864   3.113438   6.086951   0.149398
     O   20   0.009138   1.845661   0.438059  12.766832   0.116161   0.126769
     H   21   0.003023   0.057947   0.096787   0.589410   0.736128   0.020093
     C   22   0.011451   0.112445   0.555904   0.122322   4.188483   0.058574
     H   23   0.010154   0.024011   0.059750   0.024320   0.711245   0.026495
     H   24   0.002768   0.019856   0.044826   0.021767   0.758337   0.015818
     H   25   0.002219   0.014996   0.034238   0.018096   0.732260   0.006541


                  C 19       O 20       H 21       C 22       H 23       H 24
 ------------------------------------------------------------------------------
     C   19  13.047772
     O   20   1.054616  14.794028
     H   21   3.485975   0.037372   4.322752
     C   22   0.749474   0.030617   0.043481  11.725336
     H   23   0.051586   0.004781   0.003566   3.356323   4.167712
     H   24   0.028741   0.007791   0.010290   3.329057   0.457467   4.154674
     H   25   0.024165   0.005055   0.011667   3.399442   0.453957   0.456258


                  H 25
 ------------------
     H   25   4.208528


          HEAT OF FORMATION =     -60.108401 KCALS/MOLE

          ZERO POINT ENERGY     117.576 KCAL/MOL

         NOTE: SYSTEM IS NOT A GROUND STATE, THEREFORE ZERO POINT
         ENERGY IS NOT MEANINGFULL. ZERO POINT ENERGY PRINTED
         DOES NOT INCLUDE THE  1 IMAGINARY FREQUENCIES


           NORMAL COORDINATE ANALYSIS (Total motion = 1 Angstrom)


   Root No.       1         2         3         4         5         6         7         8

                 1 A       2 A       3 A       4 A       5 A       6 A       7 A       8 A   

                -728.0      42.0      93.7     126.3     134.7     147.8     153.3     182.2
  
           1    0.0178    0.0203   -0.0058   -0.0026   -0.0189    0.0108   -0.0016   -0.0025
           2   -0.0162   -0.0054   -0.0107    0.0155   -0.0112    0.0154   -0.0025   -0.0114
           3   -0.0702    0.0045   -0.0049   -0.0236   -0.0013   -0.0148   -0.0040    0.0389
           4    0.0192    0.0203   -0.0060   -0.0022   -0.0189    0.0111   -0.0015   -0.0032
           5    0.0096    0.0186   -0.0094    0.0343   -0.0141    0.0202    0.0011   -0.0141
           6    0.0550   -0.0040    0.0023   -0.0079    0.0025   -0.0049    0.0065    0.0094
           7   -0.0002   -0.0050   -0.0100   -0.0239   -0.0155    0.0076   -0.0010   -0.0050
           8    0.0269   -0.0205   -0.0132    0.0038   -0.0091    0.0144   -0.0022   -0.0149
           9   -0.0080    0.0059   -0.0008   -0.0465   -0.0196    0.0060   -0.0112    0.0083
          10    0.0134   -0.0034   -0.0110   -0.0287   -0.0195    0.0094   -0.0037   -0.0032
          11   -0.0055   -0.0422   -0.0197   -0.0106   -0.0033    0.0075   -0.0003   -0.0079
          12    0.0390    0.0105   -0.0033   -0.0640   -0.0333    0.0118   -0.0211    0.0154
          13   -0.0216   -0.0308   -0.0167   -0.0324   -0.0030   -0.0011    0.0069   -0.0091
          14   -0.0175   -0.0106   -0.0076    0.0061   -0.0144    0.0218   -0.0034   -0.0287
          15    0.0106    0.0023    0.0051   -0.0491   -0.0183    0.0130   -0.0071   -0.0251
          16    0.0287   -0.0495   -0.0231   -0.0432    0.0040   -0.0075    0.0111   -0.0094
          17    0.0224   -0.0253   -0.0123   -0.0049   -0.0097    0.0175   -0.0003   -0.0306
          18    0.0369   -0.0004    0.0070   -0.0758   -0.0254    0.0204   -0.0078   -0.0422
          19   -0.0026   -0.0313   -0.0160   -0.0197    0.0035   -0.0050    0.0086   -0.0081
          20   -0.0693    0.0145    0.0042    0.0151   -0.0229    0.0308   -0.0079   -0.0377
          21   -0.0934    0.0038    0.0083   -0.0208   -0.0089    0.0097   -0.0038   -0.0328
          22    0.0195   -0.0186   -0.0126   -0.0191   -0.0038    0.0002    0.0048   -0.0062
          23    0.0355    0.0331    0.0087    0.0305   -0.0272    0.0331   -0.0140   -0.0246
          24    0.0524    0.0068    0.0083    0.0027    0.0015    0.0002   -0.0057   -0.0114
          25   -0.0167   -0.0501   -0.0216   -0.0223    0.0164   -0.0149    0.0148   -0.0056
          26   -0.0267    0.0190    0.0083    0.0104   -0.0197    0.0262   -0.0078   -0.0324
          27   -0.0363   -0.0011    0.0120   -0.0314    0.0055   -0.0042    0.0007   -0.0240
          28    0.0032    0.0517   -0.0071    0.0174   -0.0234    0.0131    0.0020    0.0048
          29    0.0044   -0.0178   -0.0149    0.0111   -0.0082    0.0096   -0.0065   -0.0031
          30   -0.0141    0.0161   -0.0188   -0.0053   -0.0008   -0.0264   -0.0122    0.0729
          31   -0.0071    0.1102   -0.0805    0.0074    0.0282    0.0008    0.0132   -0.0347
          32   -0.0081   -0.0003   -0.0225    0.0141   -0.0031    0.0116   -0.0009   -0.0123
          33    0.0008    0.1018   -0.1802   -0.0430    0.1140   -0.0662   -0.0035    0.0042
          34    0.0127   -0.0285    0.1519    0.0727   -0.1445    0.0481   -0.0138    0.1011
          35    0.0321    0.0231   -0.0966    0.0011    0.0469   -0.0165   -0.0071   -0.0177
          36   -0.0125    0.0034    0.0062    0.0039   -0.0199   -0.0212   -0.0149    0.0891
          37   -0.0025    0.0924   -0.0811   -0.0055    0.0309   -0.0014    0.0093   -0.0372
          38   -0.0003   -0.0829    0.0662    0.0137   -0.0636    0.0275   -0.0148    0.0280
          39   -0.0042   -0.0477    0.1076    0.0411   -0.0956   -0.0006   -0.0245    0.1486
          40    0.0070    0.0052    0.0049    0.0090   -0.0035   -0.0219   -0.0023   -0.0025
          41   -0.0004    0.0133    0.0072    0.0047    0.0192    0.0347   -0.0006    0.0222
          42   -0.0027   -0.0110    0.0102    0.0281    0.0490    0.1030   -0.0008    0.0106
          43    0.0097   -0.0103    0.0031    0.0041    0.0115   -0.0088   -0.0003    0.0058
          44   -0.0040    0.0144    0.0103   -0.0051    0.0085   -0.0028    0.0027    0.0071
          45    0.0019    0.0008    0.0195    0.0096    0.0184    0.0071    0.0037   -0.0137
          46   -0.0003    0.0150    0.0084    0.0148   -0.0015    0.0014   -0.0039   -0.0040
          47   -0.0013    0.0017   -0.0010   -0.0025    0.0068   -0.0050    0.0013    0.0142
          48    0.0016   -0.0111   -0.0106    0.0251    0.0022    0.0197   -0.0026   -0.0059
          49   -0.0227   -0.0088    0.0074    0.0086    0.0144   -0.0066    0.0007    0.0008
          50    0.0034    0.0001    0.0045   -0.0193    0.0044   -0.0071    0.0025    0.0052
          51    0.0935    0.0056   -0.0006   -0.0027   -0.0138    0.0152   -0.0033   -0.0174
          52   -0.0013   -0.0201   -0.0031   -0.0015    0.0125    0.0124   -0.0015    0.0064
          53    0.0013    0.0244    0.0211    0.0007    0.0082   -0.0378    0.0061    0.0029
          54   -0.0022    0.0068    0.0468    0.0129    0.0252   -0.0830    0.0186   -0.0379
          55    0.0070    0.0025    0.0059    0.0161    0.0080   -0.0016   -0.0007    0.0014
          56    0.0666   -0.0035    0.0052   -0.0232    0.0084   -0.0119    0.0011    0.0091
          57    0.0899    0.0062    0.0006   -0.0064   -0.0115    0.0099   -0.0082   -0.0111
          58    0.0000    0.0292    0.0145    0.0131   -0.0043    0.0181   -0.0090    0.0026
          59   -0.0008   -0.0031   -0.0138    0.0178   -0.0041   -0.0364    0.0034    0.0166
          60   -0.0020   -0.0248   -0.0390    0.0676   -0.0202   -0.0494    0.0031   -0.0037
          61   -0.0156    0.0095    0.0079    0.0166    0.0029    0.0007   -0.0024   -0.0024
          62   -0.0615   -0.0083    0.0089   -0.0259    0.0094   -0.0107    0.0010   -0.0028
          63   -0.0721    0.0227    0.0087   -0.0033   -0.0260    0.0203   -0.0125   -0.0342
          64   -0.0021   -0.0226    0.0119   -0.0054    0.0215   -0.0193    0.0024    0.0054
          65    0.0052   -0.0102    0.0074   -0.0295    0.0106   -0.0174    0.0048    0.0111
          66   -0.0039   -0.0021   -0.0144   -0.0078   -0.0100    0.0034    0.0207    0.0096
          67    0.0147   -0.0374    0.0210   -0.0120    0.0419   -0.0571   -0.1152   -0.0082
          68   -0.0143   -0.0121    0.0009   -0.0245    0.0214   -0.0379   -0.0634    0.0122
          69   -0.0182   -0.0162   -0.0167   -0.0055    0.0204   -0.0536   -0.1638    0.0011
          70   -0.0163   -0.0189    0.0059   -0.0163   -0.0026    0.0241    0.2126    0.0376
          71    0.0351    0.0009    0.0153   -0.0312   -0.0113    0.0253    0.1282    0.0068
          72   -0.0138   -0.0059   -0.0184   -0.0088   -0.0049   -0.0069    0.0038    0.0162
          73    0.0012   -0.0235    0.0143   -0.0009    0.0309   -0.0366   -0.0808   -0.0074
          74    0.0022   -0.0272    0.0094   -0.0416    0.0264   -0.0472   -0.0414    0.0182
          75   -0.0123    0.0084   -0.0206   -0.0129   -0.0401    0.0590    0.2441    0.0372


   Root No.       9        10        11        12        13        14        15        16

                 9 A      10 A      11 A      12 A      13 A      14 A      15 A      16 A   

                 214.5     224.2     265.2     287.7     335.0     364.0     398.1     439.1
  
           1   -0.0034    0.0120   -0.0134    0.0233    0.0126   -0.0164    0.0368    0.0478
           2   -0.0015   -0.0124    0.0188   -0.0304    0.0127   -0.0070    0.0047    0.0138
           3    0.0109    0.0023   -0.0006   -0.0119    0.0728    0.0020   -0.0270    0.0316
           4   -0.0050    0.0112   -0.0126    0.0209    0.0114   -0.0148    0.0337    0.0435
           5   -0.0250   -0.0215    0.0241   -0.0540    0.0108   -0.0027   -0.0115    0.0236
           6   -0.0253    0.0015   -0.0221    0.0091    0.0840    0.0060   -0.0525    0.0899
           7    0.0125    0.0225   -0.0130    0.0297    0.0082   -0.0038    0.0178   -0.0051
           8    0.0082   -0.0067    0.0194   -0.0266    0.0073   -0.0009   -0.0054   -0.0195
           9    0.0438    0.0228    0.0171   -0.0335    0.0121   -0.0142    0.0238   -0.0290
          10    0.0259    0.0293   -0.0064    0.0206   -0.0007   -0.0091    0.0370   -0.0314
          11    0.0156   -0.0054    0.0273   -0.0391    0.0103    0.0112   -0.0254   -0.0699
          12    0.0940    0.0500    0.0360   -0.0562   -0.0171   -0.0324    0.0875   -0.1188
          13   -0.0125   -0.0013   -0.0031    0.0052   -0.0034    0.0157   -0.0296   -0.0093
          14    0.0044   -0.0058    0.0115   -0.0081   -0.0107    0.0013   -0.0111    0.0062
          15    0.0140    0.0013    0.0076   -0.0143   -0.0481    0.0029   -0.0272    0.0360
          16   -0.0231   -0.0171    0.0111   -0.0279   -0.0307    0.0235   -0.0505    0.0154
          17   -0.0015   -0.0153    0.0217   -0.0328   -0.0391    0.0111   -0.0371    0.0287
          18    0.0287    0.0160    0.0070   -0.0218   -0.1316    0.0299   -0.0942    0.1037
          19   -0.0302   -0.0207   -0.0035    0.0091    0.0143    0.0034   -0.0031   -0.0245
          20    0.0143    0.0145   -0.0159    0.0481    0.0005    0.0087   -0.0264   -0.0280
          21   -0.0282   -0.0394    0.0037    0.0080   -0.0063   -0.0203    0.0341   -0.0029
          22   -0.0086    0.0040   -0.0134    0.0275    0.0132    0.0132   -0.0332   -0.0356
          23    0.0432    0.0397   -0.0264    0.0697    0.0217    0.0034   -0.0436   -0.0619
          24   -0.0260   -0.0527    0.0088   -0.0012    0.0315   -0.0524    0.0739   -0.0319
          25   -0.0617   -0.0587    0.0122   -0.0247    0.0161   -0.0122    0.0407   -0.0041
          26    0.0176    0.0173   -0.0257    0.0558   -0.0054    0.0119   -0.0401   -0.0265
          27   -0.0461   -0.0622   -0.0032   -0.0013   -0.0168   -0.0267    0.0433    0.0159
          28   -0.0318   -0.0118    0.0112   -0.0316   -0.0020    0.0026   -0.0049   -0.0061
          29    0.0123   -0.0124    0.0114    0.0054   -0.0106   -0.0182    0.0336    0.0333
          30    0.0094   -0.0315    0.0079    0.0279   -0.0281    0.0014   -0.0116   -0.0074
          31   -0.0401   -0.0205    0.0325   -0.0717    0.0102    0.0210   -0.0436   -0.0429
          32    0.0011   -0.0173    0.0237   -0.0289    0.0075   -0.0061    0.0038    0.0102
          33    0.0329   -0.0350    0.0162    0.0603   -0.0690    0.0004    0.0077   -0.0102
          34   -0.0639   -0.0355    0.0063   -0.0352   -0.0510    0.0037   -0.0156   -0.0392
          35    0.0265   -0.0311    0.0163    0.0555   -0.0937   -0.0227    0.0622    0.0202
          36    0.0042   -0.0362    0.0072    0.0287   -0.0396    0.0013   -0.0124   -0.0131
          37   -0.0219   -0.0049    0.0167   -0.0367    0.0178    0.0061   -0.0094   -0.0021
          38    0.0230    0.0097   -0.0133    0.0320    0.0205   -0.0389    0.0664    0.0871
          39   -0.0152   -0.0529    0.0045    0.0309   -0.0795    0.0019   -0.0146   -0.0346
          40    0.0091   -0.0017   -0.0035   -0.0020   -0.0003   -0.0551   -0.0117   -0.0015
          41   -0.0039    0.0077   -0.0045   -0.0037   -0.0047    0.0072    0.0038   -0.0003
          42    0.0002    0.0084    0.0042   -0.0012   -0.0053   -0.0153   -0.0006    0.0005
          43    0.0142   -0.0042   -0.0145   -0.0089   -0.0017   -0.0310   -0.0048   -0.0000
          44   -0.0030    0.0005   -0.0191   -0.0022    0.0005    0.0047   -0.0006    0.0027
          45   -0.0006    0.0001   -0.0038    0.0039    0.0116    0.0051   -0.0112    0.0076
          46    0.0067    0.0019   -0.0002   -0.0004   -0.0046   -0.0304   -0.0068    0.0000
          47   -0.0017   -0.0023   -0.0141   -0.0025   -0.0014   -0.0013    0.0032   -0.0042
          48   -0.0007   -0.0058    0.0082    0.0077    0.0073   -0.0029    0.0022   -0.0121
          49    0.0133   -0.0027   -0.0119   -0.0069   -0.0056   -0.0377   -0.0036    0.0011
          50   -0.0045   -0.0071   -0.0241    0.0017    0.0064    0.0175   -0.0016   -0.0002
          51   -0.0145   -0.0015   -0.0081    0.0181    0.0194    0.0042   -0.0145    0.0086
          52    0.0203   -0.0174   -0.0469   -0.0155   -0.0042    0.0575    0.0070    0.0006
          53   -0.0068    0.0118    0.0095    0.0019   -0.0006   -0.0705   -0.0076    0.0000
          54    0.0102   -0.0047   -0.0102   -0.0069   -0.0063    0.0366    0.0105   -0.0040
          55    0.0103   -0.0003   -0.0090   -0.0061   -0.0035   -0.0367   -0.0069   -0.0010
          56    0.0003   -0.0149   -0.0202    0.0009    0.0049    0.0010    0.0030   -0.0089
          57   -0.0033   -0.0212    0.0072    0.0155    0.0213   -0.0121    0.0020   -0.0204
          58    0.0060    0.0069    0.0280    0.0022    0.0007    0.1118    0.0110    0.0034
          59    0.0017    0.0074   -0.0106   -0.0058   -0.0043    0.0232    0.0032    0.0039
          60    0.0065    0.0126    0.0084    0.0003   -0.0000    0.0141   -0.0019    0.0040
          61    0.0098    0.0005   -0.0059   -0.0029   -0.0037   -0.0411   -0.0061   -0.0030
          62    0.0004   -0.0219   -0.0236    0.0027   -0.0033    0.0001    0.0176   -0.0128
          63   -0.0066   -0.0230    0.0112    0.0276    0.0119   -0.0274    0.0146   -0.0273
          64   -0.0068    0.0209    0.0618    0.0129   -0.0061   -0.0153    0.0002    0.0016
          65   -0.0194    0.0107    0.0261    0.0137    0.0072    0.0388    0.0016    0.0001
          66   -0.0436    0.0509   -0.0367   -0.0121   -0.0193   -0.0030    0.0097   -0.0072
          67   -0.0425    0.0458    0.1150    0.0267    0.0037    0.0102   -0.0033    0.0056
          68   -0.0343    0.0268   -0.0197   -0.0086   -0.0082    0.0255    0.0094   -0.0070
          69   -0.0911    0.0918   -0.0645   -0.0343   -0.0345   -0.0033    0.0188   -0.0148
          70    0.0151    0.0261    0.1051    0.0240   -0.0219   -0.0122    0.0136   -0.0024
          71    0.0238   -0.0361    0.0733    0.0471    0.0348    0.0468   -0.0153    0.0138
          72   -0.0574    0.0705   -0.0488   -0.0236   -0.0332   -0.0061    0.0189   -0.0136
          73   -0.0151    0.0188    0.0442    0.0087   -0.0002   -0.0170   -0.0048    0.0031
          74   -0.0584    0.0554    0.0840    0.0204   -0.0031    0.0652    0.0123   -0.0037
          75   -0.0056    0.0360   -0.0189   -0.0045   -0.0292   -0.0102    0.0173   -0.0092


   Root No.      17        18        19        20        21        22        23        24

                17 A      18 A      19 A      20 A      21 A      22 A      23 A      24 A   

                 457.0     549.5     589.5     617.0     621.9     654.7     707.7     802.6
  
           1   -0.0102    0.0057    0.0038   -0.0008    0.0016    0.0021    0.0015    0.0017
           2   -0.0053    0.0023    0.0040   -0.0192    0.0165    0.0019   -0.0002    0.0026
           3   -0.0223    0.0145   -0.0011    0.0070   -0.0060   -0.0110    0.0018    0.0092
           4   -0.0084    0.0046    0.0027    0.0003    0.0007    0.0016    0.0002    0.0012
           5   -0.0072    0.0034    0.0095   -0.0621    0.0516   -0.0037   -0.0125    0.0059
           6   -0.0118    0.0095   -0.0260    0.0133   -0.0126   -0.0653   -0.0566   -0.0431
           7   -0.0011    0.0015   -0.0091    0.0485   -0.0394   -0.0030    0.0059   -0.0106
           8    0.0028   -0.0004   -0.0082    0.0180   -0.0151   -0.0113   -0.0006   -0.0084
           9    0.0205   -0.0063    0.0029   -0.0182    0.0162   -0.0055   -0.0108   -0.0086
          10    0.0141   -0.0070   -0.0080    0.0472   -0.0386    0.0089    0.0028    0.0303
          11    0.0137   -0.0075   -0.0092    0.0100   -0.0080   -0.0039   -0.0023    0.0248
          12    0.0703   -0.0338    0.0040   -0.0050    0.0038    0.0331   -0.0190    0.1258
          13   -0.0078    0.0024    0.0030   -0.0255    0.0215   -0.0018    0.0020   -0.0041
          14   -0.0054    0.0028   -0.0156    0.0625   -0.0525   -0.0044    0.0075   -0.0192
          15   -0.0117    0.0065    0.0041   -0.0113    0.0069   -0.0086    0.0067   -0.0304
          16   -0.0158    0.0047    0.0077   -0.0217    0.0143    0.0119    0.0033    0.0495
          17   -0.0149    0.0051   -0.0100    0.0608   -0.0541    0.0102    0.0072    0.0386
          18   -0.0402    0.0146    0.0135    0.0259   -0.0285    0.0455    0.0011    0.1409
          19   -0.0003   -0.0026    0.0012   -0.0203    0.0185   -0.0152    0.0012    0.0003
          20   -0.0061   -0.0027   -0.0047   -0.0064    0.0101   -0.0134   -0.0077    0.0188
          21    0.0189   -0.0106   -0.0077    0.0006    0.0039   -0.0226   -0.0050   -0.0137
          22   -0.0213    0.0083    0.0147   -0.0983    0.0791   -0.0208    0.0156   -0.0367
          23   -0.0445    0.0259    0.0139   -0.0987    0.0709   -0.0477    0.0495   -0.1027
          24   -0.0036    0.0152   -0.0047    0.0360   -0.0445   -0.0640    0.0644   -0.1201
          25    0.0215   -0.0158   -0.0148    0.0968   -0.0713   -0.0016   -0.0135    0.0788
          26   -0.0202   -0.0073    0.0180   -0.0424    0.0428   -0.0175   -0.0101    0.0973
          27    0.0148   -0.0297    0.0188    0.0278   -0.0073   -0.0200   -0.0262    0.1918
          28   -0.0022    0.0013    0.0019   -0.0060    0.0047    0.0018    0.0012    0.0028
          29   -0.0054    0.0029    0.0090   -0.0344    0.0289    0.0091    0.0025    0.0061
          30    0.0036    0.0008   -0.0043    0.0086   -0.0099   -0.0067   -0.0029    0.0018
          31    0.0029   -0.0027   -0.0058    0.0067   -0.0041   -0.0048    0.0001   -0.0022
          32   -0.0043    0.0032    0.0026   -0.0257    0.0218    0.0028    0.0010    0.0074
          33    0.0147   -0.0116    0.0004    0.0047   -0.0026    0.0007   -0.0030   -0.0183
          34    0.0108   -0.0103    0.0003   -0.0043    0.0000    0.0033   -0.0027   -0.0199
          35    0.0161   -0.0142    0.0125   -0.0451    0.0387    0.0196   -0.0017   -0.0269
          36    0.0063   -0.0025   -0.0036    0.0071   -0.0089   -0.0054   -0.0032   -0.0050
          37   -0.0044    0.0049   -0.0013   -0.0015    0.0009   -0.0011    0.0009    0.0080
          38   -0.0228    0.0141    0.0167   -0.0435    0.0349    0.0088    0.0026    0.0270
          39    0.0162   -0.0131   -0.0020    0.0066   -0.0067   -0.0015   -0.0035   -0.0217
          40    0.0149    0.0223    0.0239    0.0357    0.0438    0.0242   -0.0047    0.0006
          41    0.0014    0.0369   -0.0375   -0.0133   -0.0103   -0.0199    0.0043    0.0023
          42   -0.0017    0.0018    0.0280    0.0122    0.0111   -0.0513   -0.0112    0.0018
          43   -0.0202   -0.0510   -0.0045    0.0005   -0.0005   -0.0302   -0.0314   -0.0030
          44    0.0277    0.0100   -0.0431   -0.0366   -0.0429    0.0447    0.0394    0.0028
          45    0.0494   -0.0596   -0.0018    0.0139    0.0260    0.0877    0.1132   -0.0017
          46    0.0354    0.0765    0.0225    0.0011   -0.0039   -0.0027    0.0121    0.0066
          47   -0.0134    0.0210   -0.0329    0.0334    0.0502    0.0559   -0.0312   -0.0051
          48   -0.0430    0.0092    0.0009   -0.0054   -0.0138    0.1502   -0.0738   -0.0076
          49   -0.0163   -0.0561   -0.0037   -0.0037   -0.0065   -0.0025    0.0001   -0.0018
          50    0.0219   -0.0221    0.0611   -0.0006   -0.0113    0.0031   -0.0180   -0.0032
          51    0.0662   -0.0281   -0.0449   -0.0026    0.0060   -0.0256   -0.0714    0.0036
          52    0.0119    0.0182   -0.0444   -0.0220   -0.0231    0.0067    0.0018    0.0002
          53   -0.0134   -0.0444   -0.0160   -0.0239   -0.0327   -0.0091   -0.0187   -0.0008
          54   -0.0164    0.0348   -0.0007    0.0040    0.0053   -0.0222   -0.0251    0.0006
          55    0.0175    0.0244    0.0517   -0.0142   -0.0278    0.0141    0.0004   -0.0051
          56   -0.0343   -0.0258    0.0496    0.0093    0.0007   -0.0157    0.0274    0.0054
          57   -0.0601    0.0343   -0.0148   -0.0034   -0.0055   -0.0134    0.0611    0.0148
          58   -0.0198   -0.0435    0.0185    0.0052    0.0031    0.0006   -0.0057   -0.0008
          59    0.0060   -0.0038   -0.0301    0.0348    0.0557   -0.0333    0.0107   -0.0019
          60    0.0134   -0.0078    0.0230   -0.0168   -0.0277   -0.0278    0.0165    0.0037
          61    0.0292    0.0632    0.0507   -0.0097   -0.0222   -0.0107    0.0218   -0.0011
          62   -0.0622   -0.1003    0.0546   -0.0012   -0.0177   -0.0183    0.0297    0.0096
          63   -0.0319    0.0864   -0.0141   -0.0005   -0.0037   -0.0843    0.1055    0.0247
          64   -0.0063   -0.0068   -0.0515   -0.0046    0.0025   -0.0037    0.0113    0.0030
          65    0.0291    0.0235    0.0691   -0.0012   -0.0134    0.0134   -0.0163   -0.0049
          66   -0.0085   -0.0036   -0.0024    0.0013    0.0007    0.0009   -0.0061    0.0017
          67    0.0262    0.0427   -0.0983   -0.0102    0.0067   -0.0055   -0.0034    0.0075
          68   -0.0106    0.0072    0.1020    0.0017   -0.0165    0.0213    0.0182   -0.0094
          69   -0.0432    0.0090    0.0153    0.0020   -0.0011    0.0117    0.0336   -0.0022
          70   -0.0360    0.0329   -0.0479   -0.0045    0.0024    0.0184    0.0714    0.0006
          71    0.0951    0.0128    0.0238   -0.0054   -0.0080   -0.0105   -0.0911    0.0005
          72   -0.0407    0.0069    0.0142    0.0029   -0.0009    0.0135    0.0366   -0.0009
          73    0.0061   -0.0230   -0.0507   -0.0045    0.0015   -0.0108   -0.0123    0.0039
          74    0.0193    0.1016    0.0410   -0.0060   -0.0130    0.0345    0.0331   -0.0045
          75   -0.0329    0.0036    0.0104    0.0023    0.0012    0.0125    0.0324   -0.0017


   Root No.      25        26        27        28        29        30        31        32

                25 A      26 A      27 A      28 A      29 A      30 A      31 A      32 A   

                 863.7     912.9     945.4     972.3     983.0    1001.6    1013.8    1026.6
  
           1   -0.0023    0.0032   -0.0062   -0.0009    0.0010   -0.0044   -0.0053   -0.0018
           2    0.0004    0.0005    0.0022    0.0016   -0.0006   -0.0002    0.0001    0.0002
           3   -0.0011    0.0097   -0.0001    0.0053    0.0011    0.0024   -0.0019   -0.0022
           4   -0.0021    0.0018   -0.0056   -0.0013    0.0024   -0.0036   -0.0028   -0.0019
           5   -0.0191   -0.0057   -0.0275   -0.0342    0.0251   -0.0314   -0.0547   -0.0248
           6   -0.1212   -0.0938   -0.1130   -0.1526    0.1486   -0.0822    0.0601   -0.0550
           7    0.0021   -0.0089    0.0053    0.0027    0.0005    0.0083    0.0267    0.0070
           8   -0.0098   -0.0078   -0.0086   -0.0041   -0.0022   -0.0012   -0.0025    0.0010
           9   -0.0093   -0.0334    0.0040   -0.0103    0.0013    0.0208   -0.0156    0.0250
          10    0.0055    0.0432   -0.0139    0.0007    0.0169   -0.0328    0.0367   -0.0355
          11    0.0004    0.0274   -0.0058   -0.0059    0.0162   -0.0289   -0.0112   -0.0381
          12    0.0015    0.1409   -0.0606   -0.0155    0.0545   -0.1144    0.0333   -0.1150
          13    0.0063   -0.0036    0.0125    0.0028   -0.0021   -0.0034   -0.0030   -0.0109
          14    0.0023    0.0024   -0.0004    0.0090   -0.0084   -0.0090   -0.0072   -0.0129
          15   -0.0017   -0.0045    0.0012    0.0149   -0.0211   -0.0132    0.0020   -0.0246
          16    0.0021    0.0381   -0.0114   -0.0315    0.0434    0.0166   -0.0137    0.0370
          17    0.0002    0.0406   -0.0223   -0.0240    0.0373    0.0156   -0.0160    0.0369
          18    0.0066    0.0826   -0.0346   -0.0728    0.1018    0.0870   -0.0035    0.1355
          19   -0.0054    0.0052   -0.0119   -0.0034    0.0009   -0.0004   -0.0063    0.0073
          20   -0.0047   -0.0075   -0.0088   -0.0032   -0.0006    0.0056   -0.0175    0.0087
          21   -0.0006    0.0118   -0.0132    0.0032    0.0035   -0.0070    0.0104    0.0069
          22   -0.0067    0.0265   -0.0241    0.0069   -0.0061   -0.0219    0.0388   -0.0083
          23   -0.0246    0.0737   -0.0637   -0.0143    0.0021    0.0131    0.0222    0.0277
          24   -0.0316    0.0903   -0.0681   -0.0430    0.0228    0.0644   -0.0410    0.0755
          25   -0.0098   -0.0440    0.0013   -0.0153   -0.0125    0.0378   -0.0838    0.0193
          26   -0.0366   -0.0492   -0.0365    0.0133   -0.0382    0.0045    0.0343   -0.0274
          27   -0.0619   -0.1034   -0.0534    0.0206   -0.0743    0.0241    0.0372   -0.0447
          28    0.0045    0.0036    0.0010    0.0007   -0.0036   -0.0020   -0.0264   -0.0049
          29    0.0075    0.0020    0.0084    0.0052   -0.0021    0.0083    0.0331    0.0081
          30   -0.0025    0.0121   -0.0036    0.0046   -0.0194   -0.0056    0.0025    0.0036
          31   -0.0005   -0.0047    0.0145    0.0154    0.0007    0.0232    0.1583    0.0334
          32    0.0058    0.0072    0.0175    0.0194   -0.0140    0.0224    0.1543    0.0357
          33   -0.0101   -0.0339   -0.0077   -0.0212    0.0459   -0.0039   -0.0634   -0.0215
          34   -0.0063   -0.0477    0.0048   -0.0290    0.0586    0.0153    0.0413   -0.0014
          35   -0.0031   -0.0756    0.0028   -0.0502    0.0990    0.0142   -0.0692   -0.0319
          36   -0.0051   -0.0052   -0.0028   -0.0051    0.0035   -0.0005    0.0072    0.0005
          37    0.0046    0.0167    0.0015    0.0075   -0.0221   -0.0032    0.0038    0.0043
          38    0.0176    0.0476   -0.0028    0.0166   -0.0490   -0.0248   -0.1381   -0.0195
          39   -0.0113   -0.0411   -0.0006   -0.0157    0.0485    0.0111    0.0182   -0.0042
          40    0.0382   -0.0080   -0.0047    0.0366    0.0079   -0.0239    0.0011    0.0158
          41   -0.0180   -0.0027   -0.0053    0.0987    0.0217    0.0048   -0.0047   -0.0008
          42    0.0164    0.0001    0.0021   -0.0323   -0.0075   -0.0078    0.0021    0.0044
          43    0.0557   -0.0011   -0.0121    0.0151    0.0046    0.0196   -0.0024   -0.0118
          44   -0.0006   -0.0023    0.0059   -0.0476   -0.0117   -0.0198    0.0034    0.0117
          45    0.0075   -0.0026   -0.0058    0.0185    0.0059    0.0112   -0.0018   -0.0075
          46   -0.0196   -0.0033    0.0124   -0.0297   -0.0091   -0.0198    0.0009    0.0095
          47   -0.0109    0.0047    0.0051   -0.0355   -0.0058    0.0072    0.0008   -0.0059
          48   -0.0061   -0.0002    0.0017    0.0048    0.0035    0.0006    0.0004   -0.0029
          49   -0.0402    0.0047    0.0167    0.0019    0.0060   -0.0051   -0.0004    0.0001
          50   -0.0191    0.0050    0.0105    0.0067    0.0013    0.0017   -0.0006   -0.0009
          51   -0.0101    0.0072    0.0098    0.0067   -0.0024    0.0004   -0.0019    0.0017
          52    0.0350   -0.0040   -0.0050   -0.0091   -0.0013   -0.0035    0.0007    0.0021
          53    0.0420   -0.0023   -0.0037   -0.0222   -0.0036   -0.0004    0.0011   -0.0002
          54   -0.0076    0.0008    0.0008    0.0072    0.0011   -0.0005   -0.0002    0.0006
          55   -0.0502    0.0103   -0.0135   -0.0067   -0.0083    0.0470    0.0009   -0.0270
          56   -0.0322   -0.0039   -0.0023    0.0088   -0.0094   -0.0125    0.0025    0.0080
          57    0.0206   -0.0044    0.0102   -0.0029   -0.0020    0.0042   -0.0030   -0.0022
          58    0.0016   -0.0003   -0.0004   -0.0070   -0.0022   -0.0025    0.0006    0.0015
          59   -0.0055    0.0059    0.0008   -0.0285   -0.0047    0.0144    0.0003   -0.0090
          60    0.0042   -0.0033   -0.0002    0.0119    0.0013   -0.0083   -0.0002    0.0056
          61   -0.0198    0.0134    0.0236   -0.0506    0.0154    0.0665   -0.0020   -0.0573
          62   -0.0489   -0.0007    0.0729    0.0509    0.0571   -0.0427    0.0291   -0.0100
          63    0.0940    0.0107    0.1514   -0.0920    0.1094    0.0507    0.0077   -0.1030
          64   -0.0445    0.0033    0.0149   -0.0023   -0.0008   -0.0121   -0.0048    0.0104
          65    0.0365    0.0011    0.0085   -0.0023    0.0095   -0.0043   -0.0045    0.0032
          66   -0.0015    0.0056    0.0142    0.0090   -0.0019    0.0090    0.0030   -0.0025
          67    0.0227   -0.0014   -0.0379    0.0168   -0.0252    0.0600    0.0256   -0.0424
          68    0.0025   -0.0062    0.0049   -0.0213    0.0213   -0.0489   -0.0237    0.0290
          69   -0.0015   -0.0092   -0.0266   -0.0095    0.0002   -0.0134   -0.0064    0.0034
          70   -0.0054   -0.0187   -0.0667   -0.0169   -0.0143   -0.0063    0.0032   -0.0036
          71    0.0494    0.0212    0.0506    0.0359    0.0058    0.0500    0.0077   -0.0272
          72   -0.0047   -0.0078   -0.0222   -0.0113   -0.0038   -0.0153   -0.0018    0.0091
          73   -0.0543    0.0128    0.0453    0.0096    0.0026   -0.0081   -0.0051    0.0123
          74    0.1252   -0.0254   -0.1063   -0.0163   -0.0179    0.0458    0.0274   -0.0423
          75   -0.0032   -0.0088   -0.0241   -0.0139   -0.0008   -0.0162   -0.0066    0.0061


   Root No.      33        34        35        36        37        38        39        40

                33 A      34 A      35 A      36 A      37 A      38 A      39 A      40 A   

                1040.2    1045.3    1067.3    1098.4    1132.9    1166.2    1197.0    1221.8
  
           1    0.0023   -0.0029   -0.0008    0.0023   -0.0017    0.0589    0.0053    0.0048
           2    0.0015   -0.0037    0.0007   -0.0021   -0.0004    0.0313    0.0051    0.0032
           3   -0.0029    0.0001    0.0267   -0.0278    0.0137   -0.0061   -0.0070   -0.0038
           4    0.0010   -0.0018   -0.0010    0.0028   -0.0013    0.0436    0.0042    0.0039
           5    0.0059    0.0132   -0.0224    0.0414   -0.0147    0.0020    0.0176    0.0160
           6   -0.0042    0.0371   -0.0529    0.1303   -0.0493   -0.0653    0.0046   -0.0099
           7    0.0034   -0.0126    0.0004   -0.0007    0.0031   -0.0415   -0.0035   -0.0025
           8    0.0126   -0.0180   -0.0040    0.0057    0.0046    0.0018   -0.0030   -0.0011
           9    0.0077   -0.0028   -0.0122    0.0090   -0.0092    0.0111    0.0034    0.0008
          10   -0.0119    0.0040    0.0152   -0.0046    0.0038   -0.0221   -0.0015   -0.0010
          11    0.0063   -0.0048    0.0106   -0.0111    0.0248   -0.1667   -0.0204   -0.0097
          12   -0.0445    0.0502    0.0401   -0.0064   -0.0034    0.0482    0.0016    0.0052
          13   -0.0066    0.0137   -0.0026   -0.0015    0.0067   -0.0060    0.0042    0.0027
          14    0.0028   -0.0085    0.0050   -0.0015   -0.0024    0.0180    0.0045    0.0023
          15   -0.0131    0.0156    0.0038    0.0020    0.0157    0.0025    0.0003    0.0012
          16    0.0425   -0.0493   -0.0089    0.0010   -0.0039    0.0785    0.0009    0.0066
          17    0.0425   -0.0579   -0.0016    0.0002   -0.0123    0.0737   -0.0005    0.0055
          18    0.0211   -0.0082   -0.0053   -0.0045   -0.0166   -0.0612   -0.0132   -0.0015
          19    0.0004    0.0014    0.0006    0.0027   -0.0063    0.0176   -0.0032   -0.0025
          20   -0.0159    0.0283   -0.0020    0.0020   -0.0137    0.0067    0.0028   -0.0040
          21    0.0066   -0.0197    0.0038   -0.0057   -0.0304   -0.0109   -0.0038   -0.0108
          22    0.0449   -0.0936    0.0142    0.0016    0.0044    0.0287   -0.0052    0.0078
          23    0.0344   -0.0521    0.0216    0.0255    0.1322    0.0174   -0.0150    0.0414
          24   -0.0275    0.0982    0.0079    0.0391    0.1993   -0.0221   -0.0221    0.0460
          25   -0.0729    0.1428   -0.0105    0.0187    0.0389    0.0533    0.0120    0.0213
          26    0.0224   -0.0697    0.0122    0.0233    0.0818   -0.0057    0.0012    0.0128
          27    0.0098   -0.0706    0.0196    0.0457    0.1740   -0.0088    0.0069    0.0361
          28    0.0060   -0.0026   -0.0021    0.0014    0.0008   -0.0470   -0.0051   -0.0043
          29   -0.0134    0.0139   -0.0013   -0.0018    0.0006   -0.0369   -0.0050   -0.0036
          30    0.0039   -0.0000   -0.0276    0.0227   -0.0080    0.0091    0.0034    0.0009
          31   -0.0453    0.0296   -0.0043   -0.0020   -0.0002    0.0280    0.0007    0.0060
          32   -0.0436    0.0359   -0.0194    0.0092   -0.0055    0.0122    0.0002    0.0025
          33    0.0104   -0.0173    0.0496   -0.0347    0.0136    0.0078   -0.0011    0.0049
          34   -0.0171    0.0065    0.0713   -0.0551    0.0177    0.0356    0.0003   -0.0033
          35    0.0086   -0.0057    0.1245   -0.0890    0.0285   -0.0380   -0.0115   -0.0125
          36   -0.0003    0.0007    0.0018    0.0002   -0.0001    0.0155    0.0015   -0.0001
          37    0.0026    0.0034   -0.0259    0.0188   -0.0067   -0.0203    0.0016   -0.0063
          38    0.0347   -0.0173   -0.0526    0.0417   -0.0100   -0.1354   -0.0039   -0.0072
          39   -0.0103   -0.0009    0.0513   -0.0370    0.0127    0.0272   -0.0051    0.0077
          40    0.0111    0.0076    0.0005    0.0019    0.0122    0.0010    0.0362   -0.0529
          41   -0.0059   -0.0025   -0.0065    0.0029   -0.0011   -0.0004   -0.0106    0.0068
          42    0.0044    0.0028    0.0035   -0.0025    0.0016    0.0000    0.0124   -0.0121
          43   -0.0121   -0.0080   -0.0033    0.0056   -0.0054    0.0003   -0.0381    0.0396
          44    0.0113    0.0066    0.0059   -0.0016    0.0072   -0.0001    0.0320   -0.0341
          45   -0.0050   -0.0040   -0.0027    0.0092   -0.0031    0.0003   -0.0203    0.0216
          46    0.0044    0.0025    0.0045   -0.0049   -0.0068   -0.0013   -0.0736    0.0877
          47   -0.0016   -0.0023   -0.0006   -0.0011   -0.0007   -0.0001   -0.0084    0.0172
          48    0.0019   -0.0004   -0.0057    0.0010    0.0065    0.0021   -0.0194    0.0021
          49    0.0007    0.0015   -0.0027   -0.0050   -0.0106   -0.0036    0.0005    0.0339
          50    0.0020    0.0023   -0.0057   -0.0150   -0.0052    0.0006   -0.0264   -0.0309
          51   -0.0040   -0.0028   -0.0167   -0.0330    0.0081   -0.0025    0.0081    0.0035
          52    0.0005   -0.0001    0.0015    0.0029    0.0036    0.0012    0.0047   -0.0078
          53   -0.0015   -0.0014    0.0015    0.0022    0.0017    0.0012   -0.0028    0.0007
          54    0.0003    0.0004   -0.0005   -0.0015   -0.0000   -0.0002    0.0022   -0.0022
          55   -0.0054   -0.0034   -0.0008   -0.0043   -0.0150   -0.0032    0.0722   -0.0235
          56    0.0156    0.0140    0.0042   -0.0063   -0.0086    0.0026   -0.0700   -0.0365
          57   -0.0128   -0.0047    0.0127    0.0000   -0.0302   -0.0063    0.0467    0.0166
          58    0.0021    0.0014    0.0003   -0.0001    0.0020    0.0005    0.0003   -0.0093
          59   -0.0051   -0.0038    0.0009   -0.0009   -0.0053   -0.0014    0.0230    0.0086
          60    0.0026    0.0025    0.0007    0.0001    0.0016    0.0004   -0.0094   -0.0047
          61   -0.0216   -0.0202   -0.0322    0.0084    0.0111    0.0191   -0.0971   -0.1319
          62    0.1426    0.0661   -0.0656   -0.0460    0.0629   -0.0078    0.2970    0.2349
          63    0.0274   -0.0175   -0.1239    0.0092    0.0947    0.0480   -0.1382   -0.1285
          64   -0.0141   -0.0096    0.0038    0.0050    0.0084    0.0012    0.0001   -0.0297
          65   -0.0231   -0.0167    0.0034    0.0174    0.0029   -0.0018    0.0297    0.0332
          66    0.0156    0.0084    0.0236    0.0272   -0.0045    0.0022   -0.0045   -0.0012
          67    0.1177    0.0779    0.0181   -0.0131   -0.0375   -0.0000   -0.0750   -0.0360
          68   -0.1014   -0.0660   -0.0444   -0.0249    0.0283   -0.0041    0.0655    0.0244
          69   -0.0212   -0.0119   -0.0415   -0.0489    0.0048   -0.0032    0.0050   -0.0094
          70    0.0015    0.0080   -0.0705   -0.1049    0.0032    0.0025   -0.0134    0.0003
          71    0.0726    0.0367    0.0896    0.1062   -0.0265    0.0028    0.0040    0.0175
          72   -0.0257   -0.0129   -0.0345   -0.0426    0.0092    0.0000    0.0017    0.0011
          73   -0.0088   -0.0092    0.0345    0.0451    0.0065    0.0042    0.0092   -0.0195
          74    0.0712    0.0545   -0.0542   -0.0928   -0.0260   -0.0025   -0.0243    0.0652
          75   -0.0266   -0.0148   -0.0390   -0.0434    0.0059   -0.0064   -0.0046   -0.0193


   Root No.      41        42        43        44        45        46        47        48

                41 A      42 A      43 A      44 A      45 A      46 A      47 A      48 A   

                1264.9    1270.7    1273.5    1275.5    1280.8    1302.2    1317.9    1328.8
  
           1   -0.0098    0.0105   -0.0110   -0.0054   -0.0132    0.0223   -0.0072   -0.0042
           2   -0.0060    0.0099   -0.0169   -0.0058   -0.0143    0.0072   -0.0155   -0.0340
           3    0.0010   -0.0044    0.0031    0.0015    0.0033   -0.0061   -0.0010    0.0080
           4   -0.0108    0.0095   -0.0099   -0.0040   -0.0114    0.0185   -0.0038    0.0036
           5   -0.1005    0.0900   -0.0949   -0.0516   -0.0242   -0.1363    0.1571    0.2365
           6    0.0253   -0.0242    0.0285    0.0196    0.0135    0.0166   -0.0225   -0.0393
           7   -0.0049    0.0055   -0.0082   -0.0032   -0.0016   -0.0091    0.0103    0.0137
           8    0.0004    0.0034   -0.0043   -0.0021   -0.0074    0.0031   -0.0175   -0.0155
           9    0.0015   -0.0028    0.0048    0.0019    0.0040   -0.0012    0.0051    0.0032
          10   -0.0045    0.0010   -0.0034   -0.0005    0.0034   -0.0158    0.0086    0.0085
          11   -0.0316    0.0742   -0.0818   -0.0384   -0.0996    0.1748   -0.0088    0.0324
          12    0.0080   -0.0191    0.0200    0.0105    0.0214   -0.0289   -0.0053   -0.0151
          13   -0.0013    0.0044   -0.0069   -0.0023   -0.0055    0.0110    0.0030   -0.0059
          14    0.0013   -0.0065    0.0079    0.0031    0.0104   -0.0224    0.0062   -0.0009
          15    0.0009   -0.0011    0.0016    0.0008    0.0004    0.0042   -0.0015    0.0025
          16    0.0278   -0.0450    0.0710    0.0334    0.0452    0.1480    0.0933    0.1380
          17    0.0217   -0.0398    0.0606    0.0273    0.0434    0.0788    0.0667    0.0997
          18   -0.0195    0.0324   -0.0506   -0.0231   -0.0326   -0.0875   -0.0564   -0.0905
          19    0.0014   -0.0043    0.0053    0.0016    0.0044   -0.0219   -0.0142   -0.0093
          20    0.0023   -0.0025    0.0046    0.0015    0.0001    0.0122   -0.0042    0.0082
          21   -0.0015    0.0028   -0.0029   -0.0019   -0.0047    0.0040   -0.0046    0.0046
          22   -0.0024   -0.0089    0.0086    0.0024    0.0220   -0.0983    0.0076   -0.0242
          23    0.0004   -0.0087    0.0072    0.0052    0.0245   -0.0602    0.0410   -0.0176
          24    0.0019    0.0065   -0.0111    0.0003   -0.0077    0.0632    0.0232   -0.0027
          25   -0.0005   -0.0104    0.0139    0.0040    0.0241   -0.0671    0.0229   -0.0018
          26    0.0035   -0.0011   -0.0000    0.0030    0.0003    0.0206    0.0053   -0.0081
          27   -0.0006    0.0020   -0.0056    0.0025    0.0073   -0.0048    0.0370   -0.0168
          28   -0.0101   -0.0170    0.0129    0.0142    0.0113   -0.0014   -0.0052   -0.0060
          29    0.0197   -0.0114    0.0115    0.0043    0.0128   -0.0073    0.0077    0.0186
          30    0.0044   -0.0119   -0.0169    0.0034   -0.0083    0.0019    0.0005   -0.0019
          31   -0.0650    0.0754    0.0750   -0.0197    0.0230    0.0210   -0.0025   -0.0166
          32   -0.0537    0.0073    0.0225    0.0083    0.0120    0.0116    0.0069    0.0040
          33    0.0874    0.1569    0.1038   -0.0921    0.0218   -0.0087   -0.0014   -0.0105
          34    0.2417    0.0353   -0.0169   -0.0729   -0.0266   -0.0147    0.0181    0.0220
          35   -0.0567   -0.1147   -0.0561    0.0633   -0.0143   -0.0017   -0.0048   -0.0118
          36    0.0416   -0.0008   -0.0142   -0.0111   -0.0103   -0.0029    0.0048    0.0055
          37    0.1095   -0.0510   -0.0452    0.0008   -0.0191   -0.0054    0.0065    0.0082
          38    0.0128    0.0731    0.1146   -0.0286    0.0333   -0.0024   -0.0099   -0.0560
          39   -0.2266    0.0515    0.0664    0.0270    0.0381    0.0171   -0.0193   -0.0156
          40   -0.0003    0.0005    0.0002    0.0011   -0.0005   -0.0001    0.0078   -0.0043
          41    0.0009   -0.0009   -0.0006   -0.0000   -0.0008    0.0001    0.0038   -0.0021
          42   -0.0004    0.0005    0.0002    0.0003    0.0002    0.0000    0.0005    0.0000
          43    0.0011   -0.0022    0.0003   -0.0023   -0.0009   -0.0010   -0.0208    0.0129
          44   -0.0005    0.0009    0.0004    0.0014    0.0004   -0.0000    0.0121   -0.0077
          45    0.0010   -0.0009   -0.0001   -0.0012   -0.0001   -0.0002   -0.0104    0.0054
          46    0.0004   -0.0008   -0.0003   -0.0017    0.0021   -0.0001   -0.0145    0.0082
          47    0.0000   -0.0001   -0.0001   -0.0003    0.0004   -0.0002   -0.0026    0.0012
          48    0.0001   -0.0002    0.0004   -0.0001   -0.0003   -0.0005   -0.0033    0.0015
          49    0.0011    0.0023   -0.0046    0.0054    0.0031    0.0052    0.0758   -0.0477
          50   -0.0006    0.0008   -0.0007    0.0009    0.0004   -0.0005    0.0026    0.0028
          51   -0.0003   -0.0008    0.0013    0.0009   -0.0019   -0.0026    0.0044   -0.0000
          52   -0.0007    0.0007    0.0004   -0.0004    0.0003   -0.0001   -0.0081    0.0045
          53   -0.0007    0.0003    0.0003   -0.0007    0.0001   -0.0001   -0.0094    0.0056
          54    0.0005    0.0000   -0.0000   -0.0000   -0.0002   -0.0000    0.0021   -0.0011
          55   -0.0007   -0.0009    0.0019   -0.0022   -0.0022   -0.0002   -0.0163    0.0108
          56   -0.0009    0.0008    0.0015   -0.0011   -0.0034   -0.0011   -0.0127    0.0100
          57   -0.0002    0.0012   -0.0025    0.0004    0.0014    0.0044    0.0123   -0.0054
          58   -0.0001    0.0001    0.0001    0.0001   -0.0002   -0.0002    0.0005   -0.0002
          59   -0.0000   -0.0000    0.0001   -0.0000    0.0003    0.0006    0.0006   -0.0006
          60   -0.0000    0.0001   -0.0001    0.0000   -0.0001   -0.0003    0.0001    0.0001
          61   -0.0006    0.0022    0.0018    0.0035   -0.0051   -0.0053    0.0135   -0.0088
          62   -0.0005   -0.0158    0.0115   -0.0194    0.0052   -0.0181   -0.1262    0.0632
          63    0.0003   -0.0008    0.0055    0.0047   -0.0028   -0.0215    0.0075   -0.0163
          64   -0.0047   -0.0085    0.0066   -0.0178   -0.0071   -0.0029   -0.0250    0.0175
          65   -0.0022   -0.0070    0.0015   -0.0085   -0.0040    0.0020    0.0171   -0.0131
          66    0.0015    0.0016    0.0077    0.0106   -0.0185   -0.0030    0.0001    0.0022
          67   -0.0126   -0.0086   -0.0503   -0.0707    0.1134    0.0270    0.0297   -0.0365
          68    0.0209    0.0370   -0.0362    0.0587    0.0676    0.0061   -0.0367    0.0118
          69    0.0232    0.0555   -0.0873    0.0480    0.1760    0.0269   -0.0372   -0.0044
          70    0.0480    0.0850   -0.0190    0.1999   -0.0071   -0.0106   -0.0044    0.0078
          71    0.0305    0.0666   -0.0603    0.0806    0.1129    0.0159   -0.0166   -0.0070
          72   -0.0043   -0.0135    0.0247    0.0038   -0.0550   -0.0086    0.0097    0.0019
          73    0.0159    0.0240    0.0116    0.0741   -0.0405   -0.0117   -0.0241    0.0215
          74   -0.0106   -0.0185    0.0522   -0.0166   -0.1009   -0.0139    0.0849   -0.0324
          75   -0.0384   -0.0600   -0.0404   -0.1878    0.1261    0.0309   -0.0014   -0.0218


   Root No.      49        50        51        52        53        54        55        56

                49 A      50 A      51 A      52 A      53 A      54 A      55 A      56 A   

                1365.0    1384.8    1389.5    1434.3    1518.5    1656.6    1670.9    1881.6
  
           1    0.0174   -0.0049   -0.0037    0.0201   -0.0043    0.0149    0.0502   -0.0004
           2   -0.0184    0.0001    0.0040   -0.0476    0.0237   -0.0339   -0.1252    0.0062
           3   -0.0023    0.0007   -0.0014    0.0036   -0.0195    0.0005    0.0155   -0.0031
           4    0.0160   -0.0071   -0.0052    0.0198   -0.0043    0.0133    0.0474    0.0031
           5   -0.0612    0.0328    0.0113    0.0113   -0.0176   -0.0067    0.0291   -0.0003
           6    0.0150   -0.0040   -0.0004   -0.0099    0.0662    0.0027   -0.0407    0.0085
           7   -0.0164    0.0048    0.0040   -0.0385   -0.0103   -0.0427   -0.0512    0.0014
           8   -0.0199   -0.0028   -0.0030   -0.0315   -0.0554   -0.0060    0.1404   -0.0069
           9    0.0104   -0.0005   -0.0005    0.0238    0.0182    0.0181   -0.0156    0.0009
          10   -0.0287    0.0051    0.0042   -0.0435   -0.0010   -0.0153   -0.0297    0.0007
          11    0.2170   -0.0230   -0.0181    0.1228   -0.0121   -0.0848   -0.0682    0.0058
          12   -0.0368    0.0031    0.0028   -0.0169    0.0180    0.0260    0.0104    0.0022
          13   -0.0208    0.0001    0.0027   -0.0152    0.0522    0.1247    0.0251    0.0013
          14    0.0140   -0.0005   -0.0007    0.0564    0.0445    0.0503   -0.0287    0.0026
          15    0.0014    0.0002   -0.0006   -0.0080   -0.0323   -0.0658   -0.0023   -0.0009
          16   -0.0115    0.0136    0.0114   -0.0904   -0.0099   -0.0317   -0.0576    0.0035
          17    0.0196    0.0087    0.0057   -0.0107   -0.0056   -0.0482   -0.0587    0.0012
          18    0.0034   -0.0085   -0.0057    0.0319    0.0200    0.0413    0.0384   -0.0058
          19   -0.0111   -0.0004   -0.0041    0.0597   -0.0315   -0.0941   -0.0257    0.0002
          20   -0.0047    0.0007   -0.0009   -0.0053   -0.0216   -0.0138    0.0030    0.0019
          21    0.0040    0.0001   -0.0003   -0.0180   -0.0052    0.0379    0.0120    0.0027
          22    0.1582   -0.0059   -0.0011   -0.0481   -0.0024   -0.0144   -0.0120   -0.0025
          23    0.1514   -0.0050    0.0052   -0.0949    0.0523    0.0601    0.0046   -0.0049
          24   -0.1215    0.0040    0.0049    0.0519    0.0563    0.0034   -0.0124   -0.0041
          25    0.2097   -0.0054    0.0025   -0.1592   -0.0380   -0.0210    0.0162   -0.0103
          26   -0.0884    0.0018   -0.0004    0.0968    0.0252   -0.0270   -0.0220   -0.0040
          27    0.0032   -0.0015    0.0044   -0.0004    0.0535    0.0244    0.0081   -0.0044
          28   -0.0023   -0.0152   -0.0086   -0.0028    0.0008    0.0001   -0.0017   -0.0001
          29    0.0044   -0.0319   -0.0205    0.0139   -0.0003    0.0077    0.0151   -0.0016
          30    0.0011    0.0092    0.0072   -0.0015    0.0023   -0.0016   -0.0021   -0.0004
          31    0.0332    0.1325    0.0758    0.0421   -0.0185    0.0158    0.0566    0.0037
          32    0.0297    0.0928    0.0546    0.0407   -0.0100    0.0140    0.0356    0.0011
          33   -0.0206   -0.0594   -0.0489   -0.0252    0.0113   -0.0092   -0.0323    0.0094
          34    0.0105    0.0517    0.0262    0.0144   -0.0108    0.0027    0.0145    0.0014
          35    0.0135    0.1409    0.0900    0.0174   -0.0224    0.0056    0.0190   -0.0033
          36    0.0026    0.0220    0.0129    0.0040   -0.0049    0.0005    0.0118   -0.0024
          37    0.0052    0.0012    0.0039    0.0029    0.0030   -0.0001   -0.0015   -0.0200
          38    0.0058    0.1646    0.0960    0.0020   -0.0027    0.0003   -0.0004   -0.0055
          39   -0.0109   -0.0780   -0.0508   -0.0112    0.0051   -0.0011   -0.0119    0.0109
          40    0.0002   -0.0008    0.0001    0.0004    0.0007   -0.0024    0.0020    0.0004
          41   -0.0001   -0.0002    0.0005   -0.0000   -0.0017    0.0017   -0.0004    0.0052
          42   -0.0000   -0.0001   -0.0001   -0.0002    0.0025   -0.0014    0.0007   -0.0023
          43    0.0003    0.0020    0.0002   -0.0022    0.0048    0.0008    0.0022    0.1837
          44   -0.0002   -0.0016   -0.0004    0.0025   -0.0136    0.0049   -0.0012    0.1634
          45    0.0002    0.0015    0.0001   -0.0007    0.0005   -0.0010    0.0008   -0.0221
          46   -0.0006    0.0013    0.0006   -0.0012    0.0081   -0.0034    0.0010   -0.0451
          47   -0.0000    0.0002    0.0006   -0.0005    0.0048   -0.0049    0.0041    0.1981
          48   -0.0001    0.0003   -0.0005    0.0009   -0.0057    0.0022   -0.0021   -0.0986
          49   -0.0026   -0.0077    0.0024    0.0081   -0.0235   -0.0079    0.0086   -0.0206
          50    0.0012   -0.0009    0.0069   -0.0095    0.0983   -0.0944    0.0684   -0.0121
          51   -0.0008    0.0007   -0.0008    0.0012   -0.0110    0.0255   -0.0242    0.0028
          52    0.0002    0.0011   -0.0010   -0.0007    0.0028    0.0004   -0.0026   -0.1114
          53    0.0002    0.0010   -0.0007   -0.0012    0.0059   -0.0014   -0.0014   -0.1196
          54    0.0000   -0.0000    0.0002    0.0001   -0.0004    0.0005   -0.0003    0.0204
          55    0.0014    0.0018   -0.0022   -0.0018   -0.0122    0.0219   -0.0145    0.0084
          56   -0.0003    0.0021   -0.0025    0.0002   -0.0429    0.0740   -0.0516   -0.0189
          57   -0.0013   -0.0011    0.0028   -0.0045    0.0345   -0.0191    0.0164    0.0059
          58    0.0001   -0.0000   -0.0001    0.0001   -0.0011    0.0012   -0.0007    0.0174
          59   -0.0002   -0.0001   -0.0007    0.0007   -0.0031    0.0013   -0.0018   -0.1371
          60    0.0002    0.0000    0.0004   -0.0006    0.0020   -0.0002    0.0007    0.0656
          61    0.0016   -0.0009   -0.0021    0.0079   -0.0503    0.0393   -0.0324   -0.0201
          62    0.0089    0.0102   -0.0098    0.0037   -0.0167   -0.0131   -0.0042    0.0131
          63    0.0086   -0.0023   -0.0051    0.0198   -0.0617   -0.0199    0.0018    0.0100
          64    0.0005   -0.0112    0.0227   -0.0024    0.0156   -0.0073    0.0043   -0.0017
          65   -0.0006    0.0168   -0.0343    0.0029   -0.0281    0.0182   -0.0121    0.0029
          66   -0.0000   -0.0016    0.0010   -0.0003    0.0002   -0.0018    0.0024   -0.0013
          67    0.0025    0.0844   -0.1447   -0.0103    0.0501   -0.0411    0.0290    0.0053
          68    0.0022   -0.0464    0.0910    0.0117   -0.0451    0.0275   -0.0150   -0.0009
          69    0.0054   -0.0137    0.0446    0.0089   -0.0248    0.0165   -0.0070    0.0072
          70    0.0020    0.0576   -0.0902   -0.0086    0.0338   -0.0140    0.0063    0.0077
          71    0.0023   -0.0664    0.1212    0.0134   -0.0446    0.0153   -0.0050    0.0009
          72   -0.0004    0.0404   -0.0727   -0.0067    0.0231   -0.0115    0.0066    0.0020
          73    0.0007    0.0196   -0.0319   -0.0054    0.0135   -0.0037    0.0014   -0.0030
          74   -0.0065   -0.1101    0.1757    0.0136   -0.0285    0.0065   -0.0044   -0.0099
          75    0.0013   -0.0118    0.0237    0.0058   -0.0128    0.0046   -0.0005   -0.0033


   Root No.      57        58        59        60        61        62        63        64

                57 A      58 A      59 A      60 A      61 A      62 A      63 A      64 A   

                1946.2    2648.2    2651.8    2663.8    2669.0    2691.6    2719.0    2739.9
  
           1    0.0006    0.0028    0.0004   -0.0025    0.0011   -0.0004   -0.0353   -0.0090
           2   -0.0060   -0.0003    0.0000   -0.0005    0.0001    0.0001    0.0020    0.0019
           3    0.0029   -0.0015    0.0003   -0.0018    0.0003    0.0000   -0.0002    0.0000
           4   -0.0047   -0.0652   -0.0064    0.0531   -0.0184    0.0037    0.4830    0.1059
           5   -0.0011    0.0032    0.0007   -0.0026    0.0009   -0.0016   -0.0052   -0.0020
           6   -0.0071   -0.0014    0.0010   -0.0000    0.0006    0.0006   -0.0032   -0.0003
           7   -0.0016    0.0005   -0.0000   -0.0006    0.0001   -0.0009    0.0128   -0.0101
           8    0.0058   -0.0003    0.0002    0.0004   -0.0002   -0.0015    0.0005   -0.0026
           9   -0.0014   -0.0002   -0.0000   -0.0000    0.0000    0.0006   -0.0044    0.0036
          10    0.0030   -0.0008    0.0007    0.0019   -0.0003    0.0092   -0.2022    0.1447
          11   -0.0020   -0.0000   -0.0001    0.0002    0.0001   -0.0003   -0.0039   -0.0008
          12    0.0007    0.0007   -0.0002   -0.0005    0.0001   -0.0026    0.0611   -0.0429
          13   -0.0042   -0.0002   -0.0001   -0.0000    0.0000    0.0060   -0.0010    0.0163
          14   -0.0018   -0.0001   -0.0001    0.0001    0.0001   -0.0058    0.0038   -0.0241
          15    0.0020    0.0001    0.0001   -0.0000   -0.0000   -0.0007   -0.0010    0.0030
          16    0.0050    0.0007    0.0001    0.0009    0.0009   -0.0854    0.0308   -0.2355
          17   -0.0032   -0.0007   -0.0001   -0.0014   -0.0013    0.1173   -0.0404    0.3103
          18    0.0002    0.0001    0.0000    0.0002    0.0002   -0.0115    0.0036   -0.0278
          19    0.0034    0.0002    0.0001    0.0001    0.0005   -0.0142    0.0003   -0.0015
          20    0.0014   -0.0003   -0.0002    0.0000   -0.0009    0.0379    0.0013   -0.0113
          21   -0.0007    0.0000   -0.0000    0.0000    0.0006   -0.0214   -0.0006    0.0053
          22   -0.0001   -0.0022   -0.0005   -0.0008   -0.0101    0.3183   -0.0007   -0.0119
          23   -0.0013    0.0014    0.0004    0.0007    0.0066   -0.2129    0.0029    0.0007
          24   -0.0040   -0.0006   -0.0000   -0.0005   -0.0042    0.1247   -0.0017   -0.0002
          25   -0.0045    0.0011    0.0007   -0.0001    0.0026   -0.1294   -0.0082    0.0553
          26   -0.0051    0.0022    0.0016   -0.0005    0.0049   -0.2682   -0.0187    0.1273
          27   -0.0023   -0.0011   -0.0008    0.0002   -0.0029    0.1521    0.0105   -0.0722
          28    0.0003   -0.0333   -0.0014    0.0212   -0.0035   -0.0004   -0.0072   -0.0015
          29    0.0021    0.0059    0.0026   -0.0208    0.0028    0.0001    0.0026    0.0010
          30   -0.0006   -0.0293    0.0036   -0.0289    0.0039   -0.0001   -0.0001   -0.0002
          31   -0.0040    0.0721    0.0210   -0.1879    0.0261    0.0009    0.0417    0.0115
          32   -0.0012   -0.1333   -0.0336    0.2959   -0.0406   -0.0014   -0.0677   -0.0187
          33   -0.0038   -0.0492   -0.0067    0.0618   -0.0084   -0.0003   -0.0171   -0.0046
          34   -0.0010   -0.0607    0.0060   -0.0531    0.0077   -0.0000   -0.0057   -0.0020
          35    0.0006   -0.0087    0.0030   -0.0276    0.0040    0.0001    0.0020    0.0002
          36   -0.0005    0.2241   -0.0352    0.3392   -0.0501   -0.0005    0.0151    0.0088
          37    0.0156    0.4119   -0.0090   -0.0295    0.0121    0.0044    0.0242    0.0017
          38    0.0015    0.0767   -0.0010   -0.0164    0.0041    0.0009    0.0090    0.0015
          39   -0.0043    0.1910   -0.0027   -0.0342    0.0091    0.0022    0.0116    0.0006
          40   -0.0063   -0.0001    0.0000    0.0000   -0.0001    0.0000    0.0000   -0.0001
          41    0.0003   -0.0002    0.0001   -0.0000   -0.0001    0.0000   -0.0000   -0.0002
          42   -0.0008    0.0001   -0.0001    0.0000    0.0000   -0.0000    0.0000    0.0001
          43   -0.1616    0.0012   -0.0001   -0.0001    0.0006   -0.0001   -0.0005   -0.0006
          44   -0.1726    0.0011   -0.0002   -0.0000    0.0002   -0.0001   -0.0002   -0.0000
          45    0.0311   -0.0002    0.0002    0.0000   -0.0000    0.0000   -0.0000   -0.0001
          46   -0.0299    0.0002   -0.0000   -0.0000    0.0001    0.0001    0.0001    0.0004
          47    0.2320    0.0001   -0.0001    0.0000    0.0000   -0.0002    0.0001    0.0004
          48   -0.1104   -0.0000    0.0001   -0.0000    0.0000    0.0002   -0.0001   -0.0002
          49    0.0252   -0.0003    0.0012   -0.0001   -0.0018    0.0001    0.0004    0.0006
          50   -0.0249   -0.0001    0.0001   -0.0005   -0.0022   -0.0002   -0.0002    0.0001
          51    0.0102    0.0001   -0.0028   -0.0004   -0.0007   -0.0000   -0.0005   -0.0001
          52    0.0968   -0.0006    0.0000    0.0001   -0.0001    0.0000    0.0002    0.0001
          53    0.1044   -0.0006    0.0001    0.0000   -0.0002    0.0000    0.0001    0.0001
          54   -0.0178    0.0002   -0.0001   -0.0000    0.0000   -0.0000   -0.0000    0.0000
          55    0.0265    0.0000   -0.0004   -0.0000    0.0004    0.0003    0.0013    0.0049
          56    0.0053    0.0001   -0.0004    0.0000    0.0007    0.0003    0.0005    0.0012
          57    0.0038    0.0000    0.0002   -0.0000   -0.0003   -0.0009   -0.0004   -0.0019
          58    0.0177   -0.0000   -0.0000    0.0000   -0.0000    0.0000    0.0000    0.0000
          59   -0.1408   -0.0001    0.0001   -0.0000   -0.0000    0.0001   -0.0000   -0.0002
          60    0.0675    0.0000   -0.0000    0.0000   -0.0000   -0.0000    0.0000    0.0000
          61    0.0112   -0.0008    0.0053    0.0002   -0.0044   -0.0083   -0.0169   -0.0647
          62    0.0148   -0.0002    0.0011    0.0001   -0.0008   -0.0024   -0.0043   -0.0161
          63   -0.0039    0.0001   -0.0018    0.0001    0.0019    0.0032    0.0065    0.0231
          64   -0.0034    0.0007    0.0126   -0.0037   -0.0303   -0.0009   -0.0006    0.0001
          65    0.0048    0.0007    0.0096   -0.0032   -0.0225   -0.0008   -0.0005   -0.0001
          66    0.0003   -0.0006   -0.0440   -0.0057   -0.0127   -0.0006   -0.0005   -0.0000
          67   -0.0104   -0.0042   -0.1420    0.0018    0.0795    0.0030    0.0024    0.0014
          68    0.0045   -0.0095   -0.2973    0.0080    0.1794    0.0062    0.0034    0.0019
          69   -0.0032    0.0066    0.1845   -0.0084   -0.1382   -0.0047   -0.0029   -0.0016
          70   -0.0069   -0.0000   -0.0613   -0.0128   -0.0435   -0.0018   -0.0012   -0.0005
          71    0.0017    0.0016    0.1740    0.0259    0.0582    0.0032    0.0021    0.0011
          72   -0.0017    0.0029    0.3792    0.0620    0.1597    0.0081    0.0053    0.0027
          73    0.0008   -0.0044    0.0406    0.0547    0.3407    0.0092    0.0060   -0.0020
          74    0.0108   -0.0008    0.0102    0.0086    0.0502    0.0015    0.0011   -0.0005
          75    0.0028   -0.0021   -0.0087    0.0199    0.1393    0.0038    0.0034   -0.0007


   Root No.      65        66        67        68        69

                65 A      66 A      67 A      68 A      69 A   

                2746.2    2754.4    2759.5    2771.2    2773.3
  
           1   -0.0038   -0.0097   -0.0021    0.0034    0.0040
           2    0.0006    0.0021   -0.0004    0.0023    0.0030
           3   -0.0003    0.0001    0.0002   -0.0009   -0.0011
           4    0.0461    0.1121    0.0272   -0.0308   -0.0386
           5   -0.0007   -0.0042   -0.0011   -0.0000   -0.0005
           6    0.0002   -0.0002   -0.0002    0.0009    0.0003
           7   -0.0058   -0.0247   -0.0025    0.0034    0.0030
           8   -0.0006    0.0009    0.0013   -0.0005   -0.0009
           9    0.0018    0.0070    0.0003   -0.0009   -0.0006
          10    0.0761    0.3231    0.0327   -0.0416   -0.0357
          11   -0.0003    0.0004    0.0003    0.0004    0.0005
          12   -0.0225   -0.0967   -0.0097    0.0125    0.0105
          13    0.0038   -0.0093   -0.0056    0.0008    0.0008
          14   -0.0044    0.0087    0.0037   -0.0009   -0.0002
          15    0.0003    0.0000    0.0004    0.0000   -0.0002
          16   -0.0462    0.0955    0.0484   -0.0094   -0.0049
          17    0.0599   -0.1268   -0.0618    0.0128    0.0065
          18   -0.0048    0.0115    0.0050   -0.0011   -0.0007
          19    0.0125    0.0010   -0.0210   -0.0019    0.0001
          20    0.0032    0.0038   -0.0046   -0.0008   -0.0001
          21   -0.0013   -0.0022    0.0043    0.0005    0.0002
          22   -0.1077    0.0053    0.1839    0.0158   -0.0030
          23    0.0820   -0.0012   -0.1375   -0.0118    0.0018
          24   -0.0467   -0.0001    0.0809    0.0073   -0.0013
          25   -0.0466   -0.0166    0.0827    0.0085   -0.0004
          26   -0.1208   -0.0387    0.2106    0.0212   -0.0010
          27    0.0678    0.0215   -0.1176   -0.0118    0.0004
          28   -0.0007   -0.0008   -0.0007    0.0037    0.0039
          29    0.0008    0.0040   -0.0005    0.0083    0.0102
          30   -0.0001   -0.0010    0.0002   -0.0033   -0.0035
[...]
 REDUCED MASS        0.3440         C 16 -- C 19          +7.9% ( 34.6%)     81.8%
 EFFECTIVE MASS      4.9829
 FORCE CONSTANT      0.2136

 VIBRATION         33   33A           ATOM PAIR      ENERGY CONTRIBUTION    RADIAL
 FREQUENCY          1040.21         C 22 -- H 23         +17.6% ( 56.6%)     24.1%
 TRANSITION DIPOLE   0.6756         C 19 -- H 21         +12.6% ( 47.8%)      0.4%
 TRAVEL (Ang.)       0.4740         C 22 -- H 25          +9.5% ( 41.4%)      3.7%
 REDUCED MASS        0.2886         C 22 -- H 24          +9.4% ( 41.3%)      2.0%
 EFFECTIVE MASS      4.4797
 FORCE CONSTANT      0.1840

 VIBRATION         34   34A           ATOM PAIR      ENERGY CONTRIBUTION    RADIAL
 FREQUENCY          1045.30         C  7 -- H  9         +20.7% ( 62.2%)     18.7%
 TRANSITION DIPOLE   0.2005         C  7 -- H  8         +18.7% ( 59.1%)      7.5%
 TRAVEL (Ang.)       0.4317         C  5 -- C  7          +7.8% ( 38.2%)      0.7%
 REDUCED MASS        0.3461         C 22 -- H 23          +6.8% ( 35.7%)     25.4%
 EFFECTIVE MASS      4.5082
 FORCE CONSTANT      0.2228

 VIBRATION         35   35A           ATOM PAIR      ENERGY CONTRIBUTION    RADIAL
 FREQUENCY          1067.35         C 10 -- H 12         +16.7% ( 48.7%)     19.6%
 TRANSITION DIPOLE   0.0767         C 22 -- H 24         +13.1% ( 43.0%)     17.4%
 TRAVEL (Ang.)       0.4667         C 19 -- H 21         +11.8% ( 40.9%)      0.4%
 REDUCED MASS        0.2901         C 10 -- H 13          +9.3% ( 36.3%)      7.3%
 EFFECTIVE MASS      3.7995
 FORCE CONSTANT      0.1947

 VIBRATION         36   36A           ATOM PAIR      ENERGY CONTRIBUTION    RADIAL
 FREQUENCY          1098.38         C 22 -- H 24         +18.1% ( 50.1%)     24.1%
 TRANSITION DIPOLE   0.2347         C 22 -- H 25         +14.3% ( 44.5%)      6.9%
 TRAVEL (Ang.)       0.3670         C  1 -- H  2         +11.0% ( 39.1%)      0.1%
 REDUCED MASS        0.4558         C 17 -- C 22          +9.8% ( 36.8%)      7.5%
 EFFECTIVE MASS      4.4908
 FORCE CONSTANT      0.3240

 VIBRATION         37   37A           ATOM PAIR      ENERGY CONTRIBUTION    RADIAL
 FREQUENCY          1132.88         C  7 -- H  8         +30.3% ( 55.7%)      0.3%
 TRANSITION DIPOLE   0.8220         C  7 -- H  9         +22.3% ( 47.8%)      0.0%
 TRAVEL (Ang.)       0.3935         C 19 -- H 21          +9.6% ( 31.4%)      0.2%
 REDUCED MASS        0.3844         C  7 -- C 19          +6.1% ( 24.9%)      4.5%
 EFFECTIVE MASS      3.3830
 FORCE CONSTANT      0.2907

 VIBRATION         38   38A           ATOM PAIR      ENERGY CONTRIBUTION    RADIAL
 FREQUENCY          1166.16         C  1 -- C 10         +23.0% ( 70.6%)     73.6%
 TRANSITION DIPOLE   0.4522         C  1 -- C  3         +15.8% ( 58.6%)      6.5%
 TRAVEL (Ang.)       0.2008         C  3 -- H  4         +11.0% ( 48.8%)     28.1%
 REDUCED MASS        1.4341         C 10 -- H 13          +8.6% ( 43.1%)     74.9%
 EFFECTIVE MASS      8.3749
 FORCE CONSTANT      1.1491

 VIBRATION         39   39A           ATOM PAIR      ENERGY CONTRIBUTION    RADIAL
 FREQUENCY          1197.01         C 19 -- H 21         +24.9% ( 76.6%)      1.9%
 TRANSITION DIPOLE   1.5901         C 16 -- C 19         +19.3% ( 67.4%)     98.6%
 TRAVEL (Ang.)       0.1740         C  7 -- C 19         +11.0% ( 50.8%)      0.2%
 REDUCED MASS        1.8599         C 17 -- C 19          +9.9% ( 48.2%)     10.2%
 EFFECTIVE MASS      8.8889
 FORCE CONSTANT      1.5702

 VIBRATION         40   40A           ATOM PAIR      ENERGY CONTRIBUTION    RADIAL
 FREQUENCY          1221.76         O 14 -- C 16         +14.5% ( 54.8%)     65.3%
 TRANSITION DIPOLE   1.2983         C 19 -- H 21         +14.0% ( 53.8%)      5.5%
 TRAVEL (Ang.)       0.1954         C 15 -- C 16         +12.5% ( 50.9%)     83.4%
 REDUCED MASS        1.4449         C 16 -- C 19         +11.1% ( 47.8%)     21.9%
 EFFECTIVE MASS      9.2542
 FORCE CONSTANT      1.2708

 VIBRATION         41   41A           ATOM PAIR      ENERGY CONTRIBUTION    RADIAL
 FREQUENCY          1264.87         C 10 -- H 13         +36.6% ( 52.8%)      0.2%
 TRANSITION DIPOLE   0.5671         C 10 -- H 12         +32.7% ( 49.8%)      0.3%
 TRAVEL (Ang.)       0.4151         C 10 -- H 11         +10.4% ( 28.1%)     20.8%
 REDUCED MASS        0.3094         C  1 -- H  2          +8.3% ( 25.1%)      7.3%
 EFFECTIVE MASS      1.4776
 FORCE CONSTANT      0.2917

 VIBRATION         42   42A           ATOM PAIR      ENERGY CONTRIBUTION    RADIAL
 FREQUENCY          1270.72         C 10 -- H 11         +25.4% ( 47.9%)      0.1%
 TRANSITION DIPOLE   0.4080         C 10 -- H 12         +12.6% ( 33.7%)      4.1%
 TRAVEL (Ang.)       0.5311         C 10 -- H 13         +10.1% ( 30.2%)     18.4%
 REDUCED MASS        0.1881         C  1 -- H  2          +9.2% ( 28.8%)     18.4%
 EFFECTIVE MASS      2.1858
 FORCE CONSTANT      0.1789

 VIBRATION         43   43A           ATOM PAIR      ENERGY CONTRIBUTION    RADIAL
 FREQUENCY          1273.47         C 10 -- H 13         +15.6% ( 39.9%)      0.7%
 TRANSITION DIPOLE   0.4116         C 10 -- H 11         +13.2% ( 36.7%)      0.1%
 TRAVEL (Ang.)       0.5374         C  5 -- H  6         +10.9% ( 33.4%)      5.3%
 REDUCED MASS        0.1834         C  1 -- H  2         +10.4% ( 32.5%)     32.4%
 EFFECTIVE MASS      2.7226         C  1 -- C 10         +10.2% ( 32.3%)     91.1%
 FORCE CONSTANT      0.1752

 VIBRATION         44   44A           ATOM PAIR      ENERGY CONTRIBUTION    RADIAL
 FREQUENCY          1275.47         C 22 -- H 24         +31.5% ( 50.1%)      0.8%
 TRANSITION DIPOLE   0.3899         C 22 -- H 25         +28.4% ( 47.6%)      2.4%
 TRAVEL (Ang.)       0.4565         C 22 -- H 23          +8.4% ( 25.8%)     39.7%
 REDUCED MASS        0.2537         C 10 -- H 12          +7.2% ( 23.9%)      0.1%
 EFFECTIVE MASS      1.7242
 FORCE CONSTANT      0.2431

 VIBRATION         45   45A           ATOM PAIR      ENERGY CONTRIBUTION    RADIAL
 FREQUENCY          1280.75         C 22 -- H 23         +29.1% ( 51.7%)      0.1%
 TRANSITION DIPOLE   0.5842         C 22 -- H 25         +17.0% ( 39.5%)      3.8%
 TRAVEL (Ang.)       0.4610         C 22 -- H 24          +9.9% ( 30.2%)     16.1%
 REDUCED MASS        0.2477         C  3 -- H  4          +8.3% ( 27.6%)      0.6%
 EFFECTIVE MASS      2.3685
 FORCE CONSTANT      0.2394

 VIBRATION         46   46A           ATOM PAIR      ENERGY CONTRIBUTION    RADIAL
 FREQUENCY          1302.20         C  5 -- H  6         +23.8% ( 52.4%)      9.2%
 TRANSITION DIPOLE   0.0957         C  3 -- H  4         +18.7% ( 46.5%)      2.0%
 TRAVEL (Ang.)       0.4467         C  1 -- H  2         +13.6% ( 39.6%)     11.1%
 REDUCED MASS        0.2595         C  7 -- H  8         +10.2% ( 34.4%)     24.9%
 EFFECTIVE MASS      2.9634
 FORCE CONSTANT      0.2593

 VIBRATION         47   47A           ATOM PAIR      ENERGY CONTRIBUTION    RADIAL
 FREQUENCY          1317.91         C 17 -- C 22         +19.2% ( 58.3%)     47.6%
 TRANSITION DIPOLE   1.0694         C 15 -- C 17         +18.0% ( 56.6%)     97.1%
 TRAVEL (Ang.)       0.1725         C 17 -- C 19         +17.7% ( 56.1%)     21.8%
 REDUCED MASS        1.7200         C  1 -- H  2          +8.3% ( 38.3%)      1.0%
 EFFECTIVE MASS      7.3984
 FORCE CONSTANT      1.7602

 VIBRATION         48   48A           ATOM PAIR      ENERGY CONTRIBUTION    RADIAL
 FREQUENCY          1328.84         C  1 -- H  2         +27.0% ( 63.8%)      0.3%
 TRANSITION DIPOLE   0.3902         C  5 -- H  6         +13.0% ( 44.2%)      0.1%
 TRAVEL (Ang.)       0.3023         C 17 -- C 22         +10.2% ( 39.2%)     57.3%
 REDUCED MASS        0.5554         C 15 -- C 17          +8.8% ( 36.4%)     93.4%
 EFFECTIVE MASS      4.8718
 FORCE CONSTANT      0.5779

 VIBRATION         49   49A           ATOM PAIR      ENERGY CONTRIBUTION    RADIAL
 FREQUENCY          1364.95         C  3 -- H  4         +27.6% ( 51.8%)      2.8%
 TRANSITION DIPOLE   0.4133         C  7 -- H  8         +24.4% ( 48.7%)      0.1%
 TRAVEL (Ang.)       0.4097         C  7 -- H  9         +19.9% ( 44.0%)      0.9%
 REDUCED MASS        0.2942         C  3 -- C  5          +7.3% ( 26.8%)     74.1%
 EFFECTIVE MASS      2.2343
 FORCE CONSTANT      0.3230

 VIBRATION         50   50A           ATOM PAIR      ENERGY CONTRIBUTION    RADIAL
 FREQUENCY          1384.83         C 10 -- H 13         +24.9% ( 50.8%)      1.4%
 TRANSITION DIPOLE   0.7489         C 10 -- H 11         +22.6% ( 48.4%)      2.2%
 TRAVEL (Ang.)       0.3979         C 10 -- H 12         +18.6% ( 43.9%)      1.4%
 REDUCED MASS        0.3075         C 22 -- H 25          +8.8% ( 30.2%)      1.2%
 EFFECTIVE MASS      2.3058
 FORCE CONSTANT      0.3475

 VIBRATION         51   51A           ATOM PAIR      ENERGY CONTRIBUTION    RADIAL
 FREQUENCY          1389.54         C 22 -- H 25         +22.7% ( 50.3%)      1.5%
 TRANSITION DIPOLE   1.1750         C 22 -- H 23         +21.9% ( 49.4%)      2.2%
 TRAVEL (Ang.)       0.3641         C 22 -- H 24         +20.4% ( 47.7%)      1.6%
 REDUCED MASS        0.3661         C 10 -- H 13          +8.1% ( 30.0%)      1.0%
 EFFECTIVE MASS      2.6664
 FORCE CONSTANT      0.4165

 VIBRATION         52   52A           ATOM PAIR      ENERGY CONTRIBUTION    RADIAL
 FREQUENCY          1434.29         C  3 -- C  5         +15.5% ( 54.4%)     97.6%
 TRANSITION DIPOLE   0.4131         C  5 -- C  7         +15.4% ( 54.3%)     51.9%
 TRAVEL (Ang.)       0.1904         C  7 -- H  9         +13.6% ( 50.9%)      1.6%
 REDUCED MASS        1.2974         C  1 -- C  3         +10.7% ( 45.2%)     47.8%
 EFFECTIVE MASS      8.3034
 FORCE CONSTANT      1.5725

 VIBRATION         53   53A           ATOM PAIR      ENERGY CONTRIBUTION    RADIAL
 FREQUENCY          1518.50         C 17 -- C 19         +19.2% ( 66.7%)     86.2%
 TRANSITION DIPOLE   1.3615         C 17 -- C 22         +14.2% ( 57.5%)     89.9%
 TRAVEL (Ang.)       0.1392         C  3 -- C  5         +12.4% ( 53.7%)     98.3%
 REDUCED MASS        2.2916         C 15 -- C 17         +11.7% ( 52.1%)      3.5%
 EFFECTIVE MASS     10.7506
 FORCE CONSTANT      3.1133

 VIBRATION         54   54A           ATOM PAIR      ENERGY CONTRIBUTION    RADIAL
 FREQUENCY          1656.55         C  5 -- C  7         +24.1% ( 72.0%)     95.0%
 TRANSITION DIPOLE   0.5021         C  3 -- C  5         +14.2% ( 55.1%)     52.9%
 TRAVEL (Ang.)       0.1169         C  5 -- H  6         +11.8% ( 50.4%)      2.0%
 REDUCED MASS        2.9799         C 17 -- C 19         +11.3% ( 49.3%)     97.9%
 EFFECTIVE MASS     11.6078
 FORCE CONSTANT      4.8180

 VIBRATION         55   55A           ATOM PAIR      ENERGY CONTRIBUTION    RADIAL
 FREQUENCY          1670.87         C  1 -- C  3         +33.4% ( 82.9%)     95.5%
 TRANSITION DIPOLE   1.2952         C  3 -- C  5         +13.8% ( 53.4%)     41.4%
 TRAVEL (Ang.)       0.1061         C  3 -- H  4         +12.3% ( 50.4%)      4.2%
 REDUCED MASS        3.5881         C  1 -- C 10         +10.5% ( 46.4%)     46.2%
 EFFECTIVE MASS     11.5037
 FORCE CONSTANT      5.9021

 VIBRATION         56   56A           ATOM PAIR      ENERGY CONTRIBUTION    RADIAL
 FREQUENCY          1881.63         C 15 -- O 18         +23.8% ( 74.1%)     99.6%
 TRANSITION DIPOLE   6.9705         C 16 -- O 20         +20.3% ( 68.4%)     99.7%
 TRAVEL (Ang.)       0.1020         C 15 -- C 16         +17.6% ( 63.6%)      0.3%
 REDUCED MASS        3.4417         C 15 -- C 17         +10.5% ( 49.2%)     59.3%
 EFFECTIVE MASS     13.4277         O 14 -- C 15         +10.2% ( 48.5%)     13.6%
 FORCE CONSTANT      7.1794

 VIBRATION         57   57A           ATOM PAIR      ENERGY CONTRIBUTION    RADIAL
 FREQUENCY          1946.21         C 16 -- O 20         +22.4% ( 71.7%)    100.0%
 TRANSITION DIPOLE   2.9508         C 15 -- C 16         +20.2% ( 68.2%)    100.0%
 TRAVEL (Ang.)       0.0994         C 15 -- O 18         +18.7% ( 65.7%)    100.0%
 REDUCED MASS        3.5067         C 16 -- C 19         +10.4% ( 49.0%)     55.9%
 EFFECTIVE MASS     13.2422         O 14 -- C 16         +10.2% ( 48.5%)     27.3%
 FORCE CONSTANT      7.8257

 VIBRATION         58   58A           ATOM PAIR      ENERGY CONTRIBUTION    RADIAL
 FREQUENCY          2648.20         C 10 -- H 13         +69.8% ( 86.2%)     99.7%
 TRANSITION DIPOLE   0.6457         C 10 -- H 12         +18.7% ( 44.6%)     89.0%
 TRAVEL (Ang.)       0.2162         C 10 -- H 11          +9.2% ( 31.4%)     75.8%
 REDUCED MASS        0.5447         C  1 -- H  2          +1.3% ( 11.9%)     99.4%
 EFFECTIVE MASS      1.4365
 FORCE CONSTANT      2.2506

 VIBRATION         59   59A           ATOM PAIR      ENERGY CONTRIBUTION    RADIAL
 FREQUENCY          2651.85         C 22 -- H 24         +53.7% ( 75.6%)     98.5%
 TRANSITION DIPOLE   0.6017         C 22 -- H 23         +43.3% ( 67.9%)     97.1%
 TRAVEL (Ang.)       0.2280         C 22 -- H 25          +1.2% ( 11.2%)     10.5%
 REDUCED MASS        0.4893         C 17 -- C 22          +0.8% (  9.5%)      0.3%
 EFFECTIVE MASS      1.4348
 FORCE CONSTANT      2.0274

 VIBRATION         60   60A           ATOM PAIR      ENERGY CONTRIBUTION    RADIAL
 FREQUENCY          2663.77         C 10 -- H 11         +48.5% ( 71.9%)     98.4%
 TRANSITION DIPOLE   0.7286         C 10 -- H 12         +44.9% ( 69.1%)     97.3%
 TRAVEL (Ang.)       0.2366         C 22 -- H 24          +1.7% ( 13.6%)     98.0%
 REDUCED MASS        0.4521         C 10 -- H 13          +1.5% ( 12.5%)     16.7%
 EFFECTIVE MASS      1.4402
 FORCE CONSTANT      1.8900

 VIBRATION         61   61A           ATOM PAIR      ENERGY CONTRIBUTION    RADIAL
 FREQUENCY          2668.98         C 22 -- H 25         +58.8% ( 79.0%)     99.4%
 TRANSITION DIPOLE   0.6040         C 22 -- H 23         +24.5% ( 51.0%)     91.7%
 TRAVEL (Ang.)       0.2399         C 22 -- H 24         +13.3% ( 37.6%)     82.2%
 REDUCED MASS        0.4389         C 10 -- H 12          +1.1% ( 10.7%)     97.0%
 EFFECTIVE MASS      1.4483
 FORCE CONSTANT      1.8421

 VIBRATION         62   62A           ATOM PAIR      ENERGY CONTRIBUTION    RADIAL
 FREQUENCY          2691.57         C  7 -- H  8         +53.4% ( 75.6%)     98.9%
 TRANSITION DIPOLE   0.4216         C  7 -- H  9         +37.9% ( 63.7%)     97.7%
 TRAVEL (Ang.)       0.2346         C  5 -- H  6          +6.6% ( 26.6%)     99.9%
 REDUCED MASS        0.4552         C  5 -- C  7          +1.0% ( 10.6%)      2.6%
 EFFECTIVE MASS      1.4734
 FORCE CONSTANT      1.9428

 VIBRATION         63   63A           ATOM PAIR      ENERGY CONTRIBUTION    RADIAL
 FREQUENCY          2719.00         C  1 -- H  2         +79.0% ( 90.0%)    100.0%
 TRANSITION DIPOLE   0.5744         C  3 -- H  4         +15.1% ( 39.4%)    100.0%
 TRAVEL (Ang.)       0.1981         C 10 -- H 11          +2.2% ( 15.1%)     98.4%
 REDUCED MASS        0.6319         C  1 -- C  3          +1.1% ( 10.6%)     29.8%
 EFFECTIVE MASS      1.3654
 FORCE CONSTANT      2.7524

 VIBRATION         64   64A           ATOM PAIR      ENERGY CONTRIBUTION    RADIAL
 FREQUENCY          2739.92         C  5 -- H  6         +68.9% ( 83.7%)    100.0%
 TRANSITION DIPOLE   0.7427         C  7 -- H  9         +11.0% ( 33.5%)    100.0%
 TRAVEL (Ang.)       0.2252         C  3 -- H  4         +10.3% ( 32.4%)     99.9%
 REDUCED MASS        0.4854         C  1 -- H  2          +5.1% ( 22.8%)     99.6%
 EFFECTIVE MASS      1.3831
 FORCE CONSTANT      2.1467

 VIBRATION         65   65A           ATOM PAIR      ENERGY CONTRIBUTION    RADIAL
 FREQUENCY          2746.16         C 19 -- H 21         +69.4% ( 84.3%)    100.0%
 TRANSITION DIPOLE   0.6107         C  7 -- H  9         +10.2% ( 32.4%)     95.5%
 TRAVEL (Ang.)       0.2232         C  7 -- H  8          +9.8% ( 31.7%)     95.2%
 REDUCED MASS        0.4930         C  3 -- H  4          +3.2% ( 18.0%)    100.0%
 EFFECTIVE MASS      1.3794
 FORCE CONSTANT      2.1904

 VIBRATION         66   66A           ATOM PAIR      ENERGY CONTRIBUTION    RADIAL
 FREQUENCY          2754.35         C  3 -- H  4         +66.3% ( 81.8%)    100.0%
 TRANSITION DIPOLE   0.9664         C  5 -- H  6         +14.8% ( 38.6%)     99.8%
 TRAVEL (Ang.)       0.2329         C  1 -- H  2          +7.3% ( 27.2%)     99.4%
 REDUCED MASS        0.4513         C 19 -- H 21          +3.1% ( 17.6%)    100.0%
 EFFECTIVE MASS      1.3906
 FORCE CONSTANT      2.0174

 VIBRATION         67   67A           ATOM PAIR      ENERGY CONTRIBUTION    RADIAL
 FREQUENCY          2759.54         C  7 -- H  9         +36.6% ( 60.2%)     95.6%
 TRANSITION DIPOLE   1.2078         C  7 -- H  8         +33.2% ( 57.3%)     94.9%
 TRAVEL (Ang.)       0.2877         C 19 -- H 21         +21.9% ( 46.5%)     99.9%
 REDUCED MASS        0.2952         C  5 -- H  6          +3.7% ( 19.0%)     99.1%
 EFFECTIVE MASS      1.3056
 FORCE CONSTANT      1.3243

 VIBRATION         68   68A           ATOM PAIR      ENERGY CONTRIBUTION    RADIAL
 FREQUENCY          2771.24         C 22 -- H 25         +21.0% ( 44.1%)     96.3%
 TRANSITION DIPOLE   0.5087         C 22 -- H 24         +16.3% ( 38.9%)     94.6%
 TRAVEL (Ang.)       0.4015         C 22 -- H 23         +15.4% ( 37.8%)     94.3%
 REDUCED MASS        0.1509         C 10 -- H 12         +14.8% ( 37.1%)     95.6%
 EFFECTIVE MASS      1.1643         C 10 -- H 11         +14.8% ( 37.0%)     95.6%
 FORCE CONSTANT      0.6830         C 10 -- H 13         +11.6% ( 32.8%)     94.0%

 VIBRATION         69   69A           ATOM PAIR      ENERGY CONTRIBUTION    RADIAL
 FREQUENCY          2773.32         C 10 -- H 11         +20.2% ( 43.2%)     96.3%
 TRANSITION DIPOLE   0.6092         C 10 -- H 12         +17.7% ( 40.4%)     95.3%
 TRAVEL (Ang.)       0.3931         C 22 -- H 25         +16.9% ( 39.5%)     96.1%
 REDUCED MASS        0.1574         C 22 -- H 23         +14.6% ( 36.8%)     95.5%
 EFFECTIVE MASS      1.1570         C 10 -- H 13         +14.2% ( 36.2%)     93.9%
 FORCE CONSTANT      0.7131         C 22 -- H 24         +13.0% ( 34.6%)     94.3%

           FORCE CONSTANT IN CARTESIAN COORDINATES (Millidynes/A)

    ATOM   CHEMICAL       X               Y               Z
   NUMBER   SYMBOL  FORCE CONSTANT  FORCE CONSTANT  FORCE CONSTANT

      1       C        8.361012       11.078837        2.034220
      2       H        4.147430        0.918915        0.546705
      3       C        8.689488       11.134885        3.617329
      4       H        3.917476        0.934356        0.727608
      5       C        9.931959        9.052204        4.335741
      6       H        2.061357        2.943458        0.517727
      7       C       10.422309        5.206854        2.977821
      8       H        2.790431        1.676396        0.984785
      9       H        1.167713        2.983575        1.285943
     10       C        6.503362        7.418002        6.087546
     11       H        1.631252        3.029591        0.720655
     12       H        0.653990        0.692113        3.947417
     13       H        3.313147        0.812581        1.233424
     14       O        6.131688        5.534018        1.536929
     15       C       11.643749       10.973326        3.124674
     16       C        6.231785       14.588140        5.404134
     17       C        8.445391       11.829041        2.199368
     18       O        7.012394        8.313926        0.767943
     19       C        8.675184        7.227827        3.411263
     20       O        1.101093       11.990850        3.030171
     21       H        3.655892        0.897338        0.982193
     22       C        6.834156        7.313002        6.031459
     23       H        1.154693        2.686054        1.536070
     24       H        0.686082        1.177916        3.461843
     25       H        3.539950        0.819694        1.053046

 **********************
 *                    *
 * JOB ENDED NORMALLY *
 *                    *
 **********************



 TOTAL JOB TIME:             1.55 SECONDS

 == MOPAC DONE ==
