 *******************************************************************************
 ** Site#: 36969        For non-commercial use only    Version 21.051W 64BITS **
 *******************************************************************************
 ** Cite this program as: MOPAC2016, Version: 21.051W, James J. P. Stewart,   **
 ** Stewart Computational Chemistry, web: HTTP://OpenMOPAC.net. Days left: 295**
 *******************************************************************************
 **                                                                           **
 **                                MOPAC2016                                  **
 **                                                                           **
 *******************************************************************************

                              PM7 CALCULATION RESULTS

 *******************************************************************************
 *  CALCULATION DONE:                                Sat May  1 14:35:26 2021  *
 *  PM7        - The PM7 Hamiltonian to be used
 *  FORCE      - FORCE CALCULATION SPECIFIED
 *  T=         - A TIME OF 172800.0 SECONDS REQUESTED
 *  DUMP=N     - RESTART FILE WRITTEN EVERY 7200.0 SECONDS REQUESTED
 *******************************************************************************
PM7 FORCE
 TS_6_FREQ

   ATOM   CHEMICAL          X               Y               Z
  NUMBER   SYMBOL      (ANGSTROMS)     (ANGSTROMS)     (ANGSTROMS)
 
     1       C         -0.80414307  *  -0.22044695  *  -1.65170816  *
     2       H          0.28940750  *  -0.19815723  *  -1.68359520  *
     3       C         -1.53940345  *   0.94679739  *  -1.61574110  *
     4       H         -2.59829126  *   0.92989084  *  -1.87722464  *
     5       C         -0.99788811  *   2.13523258  *  -1.10297991  *
     6       H         -1.65913402  *   2.99011534  *  -0.95377784  *
     7       C          0.30141780  *   2.18623800  *  -0.63337274  *
     8       H          1.09239239  *   1.58954973  *  -1.08045907  *
     9       H          0.68710820  *   3.07160917  *  -0.13944303  *
    10       C         -1.41218449  *  -1.50144808  *  -2.10069705  *
    11       H         -0.91365599  *  -2.37995949  *  -1.65299318  *
    12       H         -2.48184527  *  -1.58176953  *  -1.86860456  *
    13       H         -1.31310590  *  -1.61611806  *  -3.19355116  *
    14       O          1.73953979  *  -0.71988667  *   0.77090830  *
    15       C          0.50452825  *  -1.33504166  *   0.49207137  *
    16       C          1.52493153  *   0.62047387  *   1.11984890  *
    17       C         -0.55541128  *  -0.29530301  *   0.60742693  *
    18       O          0.48369522  *  -2.49810456  *   0.23103647  *
    19       C          0.06757915  *   0.90057113  *   0.97729798  *
    20       O          2.44533580  *   1.30153619  *   1.44979668  *
    21       H         -0.39818959  *   1.68665274  *   1.55355872  *
    22       C         -1.94217105  *  -0.67624563  *   0.94597334  *
    23       H         -2.27562099  *  -1.58456844  *   0.41975764  *
    24       H         -2.04336211  *  -0.89193970  *   2.02372752  *
    25       H         -2.66222600  *   0.12352707  *   0.71500927  *
 


          CARTESIAN COORDINATES 

    NO.       ATOM           X           Y           Z

     1         C         -0.8041     -0.2204     -1.6517
     2         H          0.2894     -0.1982     -1.6836
     3         C         -1.5394      0.9468     -1.6157
     4         H         -2.5983      0.9299     -1.8772
     5         C         -0.9979      2.1352     -1.1030
     6         H         -1.6591      2.9901     -0.9538
     7         C          0.3014      2.1862     -0.6334
     8         H          1.0924      1.5895     -1.0805
     9         H          0.6871      3.0716     -0.1394
    10         C         -1.4122     -1.5014     -2.1007
    11         H         -0.9137     -2.3800     -1.6530
    12         H         -2.4818     -1.5818     -1.8686
    13         H         -1.3131     -1.6161     -3.1936
    14         O          1.7395     -0.7199      0.7709
    15         C          0.5045     -1.3350      0.4921
    16         C          1.5249      0.6205      1.1198
    17         C         -0.5554     -0.2953      0.6074
    18         O          0.4837     -2.4981      0.2310
    19         C          0.0676      0.9006      0.9773
    20         O          2.4453      1.3015      1.4498
    21         H         -0.3982      1.6867      1.5536
    22         C         -1.9422     -0.6762      0.9460
    23         H         -2.2756     -1.5846      0.4198
    24         H         -2.0434     -0.8919      2.0237
    25         H         -2.6622      0.1235      0.7150

 General Reference for PM7:
 "Optimization of Parameters for Semiempirical Methods VI: More Modifications to the 
 NDDO Approximations and Re-optimization of Parameters", J. J. P. Stewart, J. Mol. Mod., 1:32, 19 (2013)
 https://link.springer.com/article/10.1007/s00894-012-1667-x

           Empirical Formula: C10 H12 O3  =    25 atoms



      MOLECULAR POINT GROUP   :   C1  


      RHF CALCULATION, NO. OF DOUBLY OCCUPIED LEVELS = 35



          HEAT OF FORMATION =     -59.768326 KCALS/MOLE


          CARTESIAN COORDINATE DERIVATIVES

   NUMBER  ATOM         X            Y            Z

     1       C      0.029413    -0.415130     0.602699
     2       H     -0.313854     0.017473    -0.306316
     3       C     -0.125688     0.272445    -0.113131
     4       H     -0.179731    -0.015450     0.302965
     5       C      0.043321     0.071121    -0.096162
     6       H      0.429923     0.054567     0.437289
     7       C      0.236293    -0.032500     0.464599
     8       H      0.042090     0.180449    -0.242867
     9       H      0.120451    -0.030232    -0.222906
    10       C      0.119280    -0.049220    -0.029993
    11       H      0.384294    -0.004910    -0.003897
    12       H      0.113434    -0.014297     0.073176
    13       H     -0.114829    -0.082208    -0.197753
    14       O      0.022097     0.064318     0.022536
    15       C     -0.014823    -0.132359     0.390644
    16       C     -0.138607    -0.060633     0.096770
    17       C     -0.153595    -0.418987    -0.518755
    18       O      0.010889     0.017560     0.041942
    19       C      0.091394     0.578322    -0.144834
    20       O     -0.130287     0.302685    -0.053007
    21       H     -0.066486    -0.360555    -0.440430
    22       C      0.061075    -0.012604    -0.256546
    23       H     -0.134020    -0.033309     0.112232
    24       H     -0.203652    -0.127612    -0.298487
    25       H     -0.128385     0.231061     0.380230
 


          GRADIENT NORM =   1.99243


          TIME FOR SCF CALCULATION =    0.01

          TIME FOR DERIVATIVES     =    0.01

          MOLECULAR WEIGHT =  180.20



          ROTATIONAL CONSTANTS IN CM(-1)

          A =    0.03538398   B =    0.02814084   C =    0.01984594



           PRINCIPAL MOMENTS OF INERTIA IN UNITS OF 10**(-40)*GRAM-CM**2

          A =      791.1143   B =      994.7384   C =     1410.5037


          ORIENTATION OF MOLECULE IN FORCE CALCULATION

    NO.       ATOM         X         Y         Z

     1          C      -0.7724   -0.2509   -1.6488
     2          H       0.3219   -0.2509   -1.6488
     3          C      -1.4845    0.9312   -1.6488
     4          H      -2.5354    0.9321   -1.9411
     5          C      -0.9340    2.1151   -1.1350
     6          H      -1.5818    2.9849   -1.0158
     7          C       0.3518    2.1461   -0.6281
     8          H       1.1432    1.5280   -1.0443
     9          H       0.7409    3.0299   -0.1339
    10          C      -1.3931   -1.5251   -2.0997
    11          H      -0.9258   -2.4076   -1.6268
    12          H      -2.4704   -1.5810   -1.8982
    13          H      -1.2645   -1.6558   -3.1877
    14          O       1.6889   -0.7699    0.8535
    15          C       0.4503   -1.3637    0.5460
    16          C       1.4916    0.5789    1.1795
    17          C      -0.5912   -0.3016    0.6174
    18          O       0.4134   -2.5294    0.2988
    19          C       0.0450    0.8862    0.9907
    20          O       2.4157    1.2456    1.5279
    21          H      -0.4212    1.6888    1.5433
    22          C      -1.9947   -0.6503    0.9197
    23          H      -2.3311   -1.5585    0.3951
    24          H      -2.1316   -0.8501    1.9966
    25          H      -2.6913    0.1606    0.6579


    FIRST DERIVATIVES WILL BE USED IN THE CALCULATION OF SECOND DERIVATIVES

          ESTIMATED TIME TO COMPLETE CALCULATION =        2.93 SECONDS

    FOR POINT-GROUP C1   THERE ARE   1 UNIQUE SYMMETRY FUNCTIONS.

 STEP:   1 TIME =     0.02 SECS, INTEGRAL =      0.02 TIME LEFT: 172799.96
 STEP:   2 TIME =     0.02 SECS, INTEGRAL =      0.04 TIME LEFT: 172799.95
 STEP:   3 TIME =     0.02 SECS, INTEGRAL =      0.05 TIME LEFT: 172799.93
 STEP:   4 TIME =     0.04 SECS, INTEGRAL =      0.09 TIME LEFT: 172799.89
 STEP:   5 TIME =     0.03 SECS, INTEGRAL =      0.12 TIME LEFT: 172799.86
 STEP:   6 TIME =     0.04 SECS, INTEGRAL =      0.15 TIME LEFT: 172799.83
 STEP:   7 TIME =     0.04 SECS, INTEGRAL =      0.19 TIME LEFT: 172799.79
 STEP:   8 TIME =     0.03 SECS, INTEGRAL =      0.22 TIME LEFT: 172799.76
 STEP:   9 TIME =     0.02 SECS, INTEGRAL =      0.24 TIME LEFT: 172799.74
 STEP:  10 TIME =     0.02 SECS, INTEGRAL =      0.26 TIME LEFT: 172799.72
 STEP:  11 TIME =     0.02 SECS, INTEGRAL =      0.28 TIME LEFT: 172799.70
 STEP:  12 TIME =     0.02 SECS, INTEGRAL =      0.29 TIME LEFT: 172799.69
 STEP:  13 TIME =     0.03 SECS, INTEGRAL =      0.32 TIME LEFT: 172799.66
 STEP:  14 TIME =     0.03 SECS, INTEGRAL =      0.36 TIME LEFT: 172799.62
 STEP:  15 TIME =     0.03 SECS, INTEGRAL =      0.39 TIME LEFT: 172799.59
 STEP:  16 TIME =     0.02 SECS, INTEGRAL =      0.40 TIME LEFT: 172799.58
 STEP:  17 TIME =     0.02 SECS, INTEGRAL =      0.42 TIME LEFT: 172799.56
 STEP:  18 TIME =     0.02 SECS, INTEGRAL =      0.43 TIME LEFT: 172799.55
 STEP:  19 TIME =     0.02 SECS, INTEGRAL =      0.45 TIME LEFT: 172799.53
 STEP:  20 TIME =     0.02 SECS, INTEGRAL =      0.47 TIME LEFT: 172799.51
 STEP:  21 TIME =     0.02 SECS, INTEGRAL =      0.49 TIME LEFT: 172799.49
 STEP:  22 TIME =     0.02 SECS, INTEGRAL =      0.51 TIME LEFT: 172799.47
 STEP:  23 TIME =     0.02 SECS, INTEGRAL =      0.52 TIME LEFT: 172799.46
 STEP:  24 TIME =     0.02 SECS, INTEGRAL =      0.55 TIME LEFT: 172799.43
 STEP:  25 TIME =     0.02 SECS, INTEGRAL =      0.56 TIME LEFT: 172799.42
 STEP:  26 TIME =     0.01 SECS, INTEGRAL =      0.57 TIME LEFT: 172799.41
 STEP:  27 TIME =     0.02 SECS, INTEGRAL =      0.59 TIME LEFT: 172799.39
 STEP:  28 TIME =     0.02 SECS, INTEGRAL =      0.61 TIME LEFT: 172799.37
 STEP:  29 TIME =     0.03 SECS, INTEGRAL =      0.64 TIME LEFT: 172799.34
 STEP:  30 TIME =     0.03 SECS, INTEGRAL =      0.67 TIME LEFT: 172799.31
 STEP:  31 TIME =     0.03 SECS, INTEGRAL =      0.70 TIME LEFT: 172799.28
 STEP:  32 TIME =     0.02 SECS, INTEGRAL =      0.73 TIME LEFT: 172799.25
 STEP:  33 TIME =     0.02 SECS, INTEGRAL =      0.75 TIME LEFT: 172799.23
 STEP:  34 TIME =     0.02 SECS, INTEGRAL =      0.77 TIME LEFT: 172799.21
 STEP:  35 TIME =     0.01 SECS, INTEGRAL =      0.78 TIME LEFT: 172799.20
 STEP:  36 TIME =     0.02 SECS, INTEGRAL =      0.80 TIME LEFT: 172799.18
 STEP:  37 TIME =     0.02 SECS, INTEGRAL =      0.81 TIME LEFT: 172799.17
 STEP:  38 TIME =     0.02 SECS, INTEGRAL =      0.83 TIME LEFT: 172799.15
 STEP:  39 TIME =     0.03 SECS, INTEGRAL =      0.86 TIME LEFT: 172799.12
 STEP:  40 TIME =     0.02 SECS, INTEGRAL =      0.87 TIME LEFT: 172799.11
 STEP:  41 TIME =     0.02 SECS, INTEGRAL =      0.89 TIME LEFT: 172799.09
 STEP:  42 TIME =     0.02 SECS, INTEGRAL =      0.90 TIME LEFT: 172799.08
 STEP:  43 TIME =     0.02 SECS, INTEGRAL =      0.92 TIME LEFT: 172799.06
 STEP:  44 TIME =     0.02 SECS, INTEGRAL =      0.94 TIME LEFT: 172799.04
 STEP:  45 TIME =     0.02 SECS, INTEGRAL =      0.96 TIME LEFT: 172799.02
 STEP:  46 TIME =     0.02 SECS, INTEGRAL =      0.98 TIME LEFT: 172799.00
 STEP:  47 TIME =     0.02 SECS, INTEGRAL =      0.99 TIME LEFT: 172798.99
 STEP:  48 TIME =     0.02 SECS, INTEGRAL =      1.01 TIME LEFT: 172798.97
 STEP:  49 TIME =     0.02 SECS, INTEGRAL =      1.03 TIME LEFT: 172798.95
 STEP:  50 TIME =     0.02 SECS, INTEGRAL =      1.05 TIME LEFT: 172798.93
 STEP:  51 TIME =     0.02 SECS, INTEGRAL =      1.07 TIME LEFT: 172798.91
 STEP:  52 TIME =     0.02 SECS, INTEGRAL =      1.09 TIME LEFT: 172798.89
 STEP:  53 TIME =     0.02 SECS, INTEGRAL =      1.11 TIME LEFT: 172798.87
 STEP:  54 TIME =     0.02 SECS, INTEGRAL =      1.12 TIME LEFT: 172798.86
 STEP:  55 TIME =     0.03 SECS, INTEGRAL =      1.15 TIME LEFT: 172798.83
 STEP:  56 TIME =     0.04 SECS, INTEGRAL =      1.19 TIME LEFT: 172798.79
 STEP:  57 TIME =     0.04 SECS, INTEGRAL =      1.23 TIME LEFT: 172798.75
 STEP:  58 TIME =     0.03 SECS, INTEGRAL =      1.25 TIME LEFT: 172798.73
 STEP:  59 TIME =     0.02 SECS, INTEGRAL =      1.28 TIME LEFT: 172798.70
 STEP:  60 TIME =     0.02 SECS, INTEGRAL =      1.29 TIME LEFT: 172798.69
 STEP:  61 TIME =     0.01 SECS, INTEGRAL =      1.30 TIME LEFT: 172798.68
 STEP:  62 TIME =     0.02 SECS, INTEGRAL =      1.32 TIME LEFT: 172798.66
 STEP:  63 TIME =     0.03 SECS, INTEGRAL =      1.36 TIME LEFT: 172798.62
 STEP:  64 TIME =     0.03 SECS, INTEGRAL =      1.39 TIME LEFT: 172798.59
 STEP:  65 TIME =     0.03 SECS, INTEGRAL =      1.42 TIME LEFT: 172798.56
 STEP:  66 TIME =     0.02 SECS, INTEGRAL =      1.43 TIME LEFT: 172798.55
 STEP:  67 TIME =     0.01 SECS, INTEGRAL =      1.45 TIME LEFT: 172798.54
 STEP:  68 TIME =     0.02 SECS, INTEGRAL =      1.46 TIME LEFT: 172798.52
 STEP:  69 TIME =     0.02 SECS, INTEGRAL =      1.48 TIME LEFT: 172798.50
 STEP:  70 TIME =     0.03 SECS, INTEGRAL =      1.51 TIME LEFT: 172798.47
 STEP:  71 TIME =     0.01 SECS, INTEGRAL =      1.52 TIME LEFT: 172798.46
 STEP:  72 TIME =     0.02 SECS, INTEGRAL =      1.54 TIME LEFT: 172798.44
 STEP:  73 TIME =     0.02 SECS, INTEGRAL =      1.55 TIME LEFT: 172798.43
 STEP:  74 TIME =     0.01 SECS, INTEGRAL =      1.57 TIME LEFT: 172798.41
 STEP:  75 TIME =     0.02 SECS, INTEGRAL =      1.58 TIME LEFT: 172798.40

(To convert to Hartree/Bohr^2, multiply by (10^(-21) x N x a0^2)/(4.184 x 627.51) =  0.0642)


           FORCE MATRIX IN MILLIDYNES/ANGSTROM


                  C  1       H  2       C  3       H  4       C  5       H  6
 ------------------------------------------------------------------------------
     C    1  14.370046
     H    2   3.360125   4.256280
     C    3   6.929786   0.767444  15.072723
     H    4   0.779526   0.087053   3.450313   4.381405
     C    5   2.130754   0.164488   5.528983   0.770448  15.042300
     H    6   0.105387   0.006120   0.758747   0.031563   3.450619   4.365163
     C    7   1.327545   0.142811   2.293740   0.088729   6.907397   0.788113
     H    8   0.146335   0.028395   0.195060   0.005460   0.794269   0.080717
     H    9   0.027696   0.005865   0.098640   0.007593   0.735150   0.044104
     C   10   3.902286   0.682391   0.878339   0.052241   0.127701   0.013472
     H   11   0.729830   0.019583   0.050546   0.004721   0.026197   0.002905
     H   12   0.719856   0.043076   0.021806   0.018758   0.011417   0.001873
     H   13   0.738408   0.015404   0.022402   0.010251   0.015195   0.001971
     O   14   0.061020   0.023923   0.060822   0.005263   0.081293   0.010440
     C   15   0.365095   0.114587   0.263405   0.010257   0.278634   0.035386
     C   16   0.201832   0.035884   0.187639   0.020069   0.203049   0.013685
     C   17   1.695814   0.346867   1.741699   0.036060   1.596235   0.059202
     O   18   0.089546   0.016330   0.083762   0.006533   0.074995   0.009416
     C   19   1.504045   0.153541   1.711134   0.034111   2.150178   0.077250
     O   20   0.048195   0.011730   0.051260   0.006189   0.056587   0.007936
     H   21   0.132493   0.011554   0.152106   0.004215   0.171093   0.007119
     C   22   0.288389   0.013795   0.143737   0.012504   0.130962   0.009796
     H   23   0.024693   0.002953   0.015843   0.004523   0.011762   0.002189
     H   24   0.026971   0.001068   0.018344   0.001692   0.017620   0.001906
     H   25   0.015527   0.002654   0.020252   0.011201   0.014884   0.004896


                  C  7       H  8       H  9       C 10       H 11       H 12
 ------------------------------------------------------------------------------
     C    7  13.074702
     H    8   3.438436   4.201425
     H    9   3.516124   0.445713   4.258497
     C   10   0.064643   0.012511   0.009134  11.636069
     H   11   0.026392   0.004036   0.002027   3.332710   4.134741
     H   12   0.012060   0.002181   0.001639   3.417359   0.450142   4.216406
     H   13   0.006185   0.002570   0.000930   3.336688   0.455632   0.457208
     O   14   0.140064   0.025510   0.020377   0.052974   0.033900   0.009221
     C   15   0.403858   0.048372   0.027274   0.137911   0.116229   0.021645
     C   16   0.488109   0.126587   0.064702   0.050611   0.027491   0.009062
     C   17   1.789306   0.170824   0.046896   0.135599   0.028030   0.011891
     O   18   0.092377   0.016236   0.006910   0.098138   0.058955   0.009878
     C   19   2.347427   0.465640   0.234572   0.051892   0.023326   0.012405
     O   20   0.047633   0.022809   0.028656   0.020051   0.008855   0.004338
     H   21   0.491045   0.010464   0.026753   0.005771   0.002886   0.001887
     C   22   0.143895   0.014932   0.007001   0.067090   0.013465   0.010350
     H   23   0.017279   0.002198   0.001855   0.018360   0.017100   0.024189
     H   24   0.019638   0.001727   0.001018   0.007059   0.003024   0.002794
     H   25   0.018539   0.002636   0.002034   0.011676   0.003570   0.006732


                  H 13       O 14       C 15       C 16       C 17       O 18
 ------------------------------------------------------------------------------
     H   13   4.156558
     O   14   0.009291   8.960809
     C   15   0.021648   3.317780  18.555828
     C   16   0.010750   3.448403   2.374209  18.767946
     C   17   0.014777   1.186281   3.033426   1.348472  14.751889
     O   18   0.011836   1.846036  12.717408   0.426359   1.082548  14.759532
     C   19   0.006186   1.234147   1.451936   3.158937   6.016337   0.133442
     O   20   0.004710   1.843578   0.428751  12.798719   0.117903   0.127356
     H   21   0.001008   0.058280   0.101046   0.591543   0.735674   0.018754
     C   22   0.004763   0.108058   0.562109   0.121640   4.141425   0.058221
     H   23   0.002772   0.024686   0.063582   0.025741   0.717309   0.027113
     H   24   0.000419   0.018076   0.040334   0.021501   0.746582   0.014607
     H   25   0.001735   0.015177   0.037489   0.021366   0.736237   0.007429


                  C 19       O 20       H 21       C 22       H 23       H 24
 ------------------------------------------------------------------------------
     C   19  13.005075
     O   20   1.067146  14.839084
     H   21   3.507799   0.035002   4.339598
     C   22   0.744125   0.030746   0.044517  11.694634
     H   23   0.049423   0.004957   0.003669   3.374603   4.188821
     H   24   0.031718   0.007894   0.010643   3.334438   0.456644   4.158248
     H   25   0.028217   0.005568   0.011555   3.384626   0.452059   0.456506


                  H 25
 ------------------
     H   25   4.199460


          HEAT OF FORMATION =     -59.768326 KCALS/MOLE

          ZERO POINT ENERGY     117.779 KCAL/MOL

         NOTE: SYSTEM IS NOT A GROUND STATE, THEREFORE ZERO POINT
         ENERGY IS NOT MEANINGFULL. ZERO POINT ENERGY PRINTED
         DOES NOT INCLUDE THE  1 IMAGINARY FREQUENCIES


           NORMAL COORDINATE ANALYSIS (Total motion = 1 Angstrom)


   Root No.       1         2         3         4         5         6         7         8

                 1 A       2 A       3 A       4 A       5 A       6 A       7 A       8 A   

                -733.7      60.8     120.5     137.4     141.4     150.9     169.0     179.8
  
           1   -0.0136    0.0284    0.0081   -0.0152    0.0055   -0.0167   -0.0003    0.0101
           2    0.0171    0.0081   -0.0220   -0.0015   -0.0024    0.0138    0.0026    0.0154
           3   -0.0758    0.0039   -0.0017   -0.0156    0.0018   -0.0176    0.0041    0.0347
           4   -0.0144    0.0284    0.0083   -0.0155    0.0051   -0.0171    0.0003    0.0111
           5   -0.0111    0.0315   -0.0073   -0.0004    0.0017    0.0213    0.0073    0.0316
           6    0.0509    0.0185   -0.0031   -0.0111    0.0006   -0.0226   -0.0007    0.0075
           7    0.0026    0.0024   -0.0064   -0.0194    0.0010   -0.0268   -0.0028   -0.0008
           8   -0.0288   -0.0073   -0.0314   -0.0047   -0.0053    0.0074    0.0014    0.0107
           9   -0.0077    0.0038   -0.0016    0.0004   -0.0014   -0.0059    0.0095    0.0061
          10   -0.0080    0.0054   -0.0075   -0.0213    0.0013   -0.0293   -0.0060   -0.0030
          11    0.0054   -0.0287   -0.0455   -0.0048   -0.0105    0.0012    0.0005   -0.0067
          12    0.0341   -0.0071    0.0017    0.0073   -0.0025    0.0036    0.0225    0.0144
          13    0.0247   -0.0290   -0.0197   -0.0182   -0.0043   -0.0288    0.0076   -0.0076
          14    0.0159    0.0012   -0.0226   -0.0071   -0.0020    0.0088    0.0023    0.0298
          15    0.0111    0.0176   -0.0074    0.0049   -0.0028   -0.0054   -0.0035   -0.0284
          16   -0.0300   -0.0503   -0.0300   -0.0185   -0.0083   -0.0333    0.0144   -0.0163
          17   -0.0272   -0.0156   -0.0294   -0.0088   -0.0047    0.0038    0.0069    0.0254
          18    0.0451    0.0226   -0.0140    0.0142   -0.0051    0.0061   -0.0024   -0.0435
          19    0.0039   -0.0314   -0.0201   -0.0134   -0.0053   -0.0226    0.0122   -0.0078
          20    0.0688    0.0272   -0.0027   -0.0072    0.0045    0.0150   -0.0048    0.0512
          21   -0.0915    0.0226   -0.0050   -0.0046   -0.0015   -0.0219   -0.0151   -0.0387
          22   -0.0081   -0.0145   -0.0117   -0.0158   -0.0018   -0.0237    0.0044   -0.0021
          23   -0.0320    0.0534    0.0047   -0.0042    0.0063    0.0178   -0.0152    0.0442
          24    0.0495    0.0160   -0.0003   -0.0137    0.0031   -0.0269   -0.0140   -0.0129
          25    0.0148   -0.0548   -0.0322   -0.0097   -0.0097   -0.0227    0.0231   -0.0194
          26    0.0302    0.0313    0.0099   -0.0045    0.0063    0.0160   -0.0069    0.0502
          27   -0.0401    0.0335   -0.0180   -0.0118   -0.0013   -0.0241   -0.0202   -0.0302
          28   -0.0027    0.0617    0.0233   -0.0094    0.0066   -0.0108    0.0084    0.0207
          29   -0.0041   -0.0012   -0.0326   -0.0007   -0.0048    0.0097    0.0034    0.0009
          30   -0.0134   -0.0153    0.0084   -0.0248    0.0067   -0.0145   -0.0101    0.0583
          31    0.0059    0.0737    0.0487   -0.0834    0.1164    0.0516    0.0673   -0.0133
          32    0.0125    0.0034   -0.0269    0.0057   -0.0126    0.0099   -0.0031    0.0138
          33    0.0035   -0.0189   -0.0057    0.0617   -0.1174   -0.0767   -0.0811    0.1153
          34   -0.0012    0.0605    0.0288   -0.0319    0.0383    0.0060    0.0233    0.0100
          35   -0.0036   -0.0267   -0.0543    0.0396   -0.0709   -0.0296   -0.0385    0.0202
          36   -0.0054   -0.0284    0.0316   -0.1361    0.1596    0.0657    0.0595    0.0049
          37   -0.0112    0.0773    0.0027    0.1032   -0.1469   -0.0915   -0.0638    0.0764
          38   -0.0304    0.0123   -0.0270   -0.0534    0.0753    0.0515    0.0586   -0.0479
          39   -0.0122   -0.0152    0.0052   -0.0054   -0.0208   -0.0289   -0.0254    0.0709
          40    0.0042   -0.0072    0.0012    0.0019   -0.0117    0.0132   -0.0034   -0.0070
          41   -0.0036   -0.0129    0.0077   -0.0122   -0.0188   -0.0089    0.0013   -0.0180
          42   -0.0041   -0.0104   -0.0365    0.0515    0.0684    0.0083    0.0011    0.0145
          43    0.0088   -0.0156   -0.0084    0.0053   -0.0036    0.0126   -0.0020    0.0033
          44   -0.0041   -0.0061    0.0189    0.0009   -0.0007   -0.0067   -0.0019   -0.0113
          45    0.0004    0.0109   -0.0217    0.0090    0.0031    0.0084    0.0009   -0.0111
          46    0.0005    0.0072    0.0113    0.0116    0.0004    0.0143   -0.0060   -0.0086
          47    0.0016   -0.0087   -0.0020   -0.0019   -0.0032   -0.0071    0.0021   -0.0088
          48    0.0004   -0.0191    0.0105    0.0103    0.0098    0.0039   -0.0020   -0.0031
          49    0.0050   -0.0044    0.0019    0.0108   -0.0002    0.0174   -0.0035   -0.0012
          50    0.0025    0.0045    0.0229    0.0048    0.0032    0.0015   -0.0018   -0.0037
          51    0.0997    0.0056    0.0124   -0.0015    0.0022   -0.0187   -0.0043   -0.0235
          52   -0.0022   -0.0300   -0.0170    0.0072    0.0017    0.0034   -0.0002   -0.0019
          53   -0.0004   -0.0104    0.0244    0.0057    0.0111   -0.0142   -0.0032   -0.0099
          54   -0.0018    0.0329   -0.0474   -0.0144   -0.0536    0.0464    0.0078   -0.0188
          55   -0.0188    0.0052    0.0150    0.0136    0.0024    0.0185   -0.0042   -0.0010
          56   -0.0614   -0.0007    0.0185    0.0055    0.0016    0.0012   -0.0001   -0.0079
          57    0.0888    0.0066    0.0056   -0.0065    0.0018   -0.0210   -0.0073   -0.0168
          58   -0.0007    0.0196    0.0117    0.0152    0.0097    0.0091   -0.0089   -0.0067
          59    0.0009   -0.0110   -0.0299    0.0006    0.0061   -0.0197    0.0044   -0.0187
          60   -0.0020   -0.0475    0.0622   -0.0037   -0.0324    0.0412    0.0012    0.0092
          61    0.0096    0.0166    0.0261    0.0146    0.0036    0.0178   -0.0061   -0.0025
          62    0.0579   -0.0053    0.0209    0.0046    0.0046    0.0028    0.0038    0.0054
          63   -0.0701    0.0230    0.0123   -0.0028   -0.0015   -0.0229   -0.0150   -0.0402
          64   -0.0062   -0.0100   -0.0017    0.0071   -0.0016    0.0165    0.0014    0.0074
          65   -0.0025    0.0186    0.0488    0.0170    0.0086    0.0042   -0.0054   -0.0195
          66   -0.0025   -0.0051    0.0223   -0.0059    0.0019   -0.0196    0.0154    0.0051
          67    0.0115   -0.0208   -0.0295   -0.0258    0.0181    0.0302   -0.0557   -0.0011
          68    0.0034    0.0337    0.0673    0.0654   -0.0295   -0.0210    0.0824   -0.0129
          69   -0.0226   -0.0245    0.0085   -0.0680    0.0549    0.0152   -0.0991   -0.0008
          70   -0.0404   -0.0166    0.0066    0.0189   -0.0175    0.0061    0.0538    0.0390
          71   -0.0154   -0.0007    0.0316   -0.0603    0.0784    0.0487   -0.1646   -0.0404
          72   -0.0054   -0.0095    0.0202   -0.0186    0.0127   -0.0126   -0.0070    0.0054
          73    0.0003    0.0024    0.0145    0.0244   -0.0065    0.0124    0.0137   -0.0057
          74    0.0007    0.0336    0.0707    0.0545   -0.0157   -0.0123    0.0551   -0.0204
          75   -0.0129    0.0080    0.0459    0.0641   -0.0609   -0.0599    0.1712    0.0385


   Root No.       9        10        11        12        13        14        15        16

                 9 A      10 A      11 A      12 A      13 A      14 A      15 A      16 A   

                 215.0     226.5     267.0     290.4     325.5     374.2     399.4     437.4
  
           1   -0.0054    0.0015   -0.0034    0.0271   -0.0094    0.0077    0.0335    0.0499
           2    0.0074    0.0029    0.0132   -0.0312   -0.0188    0.0009    0.0063    0.0126
           3    0.0088   -0.0131    0.0023    0.0027    0.0686   -0.0413    0.0227   -0.0210
           4   -0.0037    0.0009   -0.0027    0.0245   -0.0090    0.0074    0.0305    0.0460
           5    0.0282   -0.0070    0.0184   -0.0542   -0.0264   -0.0004   -0.0130    0.0195
           6   -0.0043    0.0221    0.0176   -0.0189    0.0789   -0.0526    0.0568   -0.0701
           7   -0.0222    0.0099   -0.0047    0.0322   -0.0023    0.0073    0.0173   -0.0010
           8   -0.0020    0.0072    0.0127   -0.0285   -0.0117   -0.0007   -0.0021   -0.0189
           9    0.0408   -0.0422   -0.0117    0.0304    0.0166    0.0046   -0.0296    0.0223
          10   -0.0318    0.0201    0.0004    0.0228    0.0043   -0.0027    0.0373   -0.0197
          11   -0.0070    0.0123    0.0160   -0.0422   -0.0163   -0.0008   -0.0184   -0.0674
          12    0.0800   -0.0794   -0.0271    0.0538   -0.0082    0.0380   -0.0992    0.0876
          13    0.0030   -0.0014   -0.0016    0.0028    0.0009    0.0044   -0.0300   -0.0138
          14   -0.0026    0.0056    0.0088   -0.0118    0.0073   -0.0053   -0.0107    0.0040
          15    0.0166   -0.0297   -0.0046    0.0211   -0.0387    0.0213    0.0315   -0.0272
          16    0.0172   -0.0012    0.0044   -0.0355    0.0153   -0.0117   -0.0522    0.0044
          17    0.0039    0.0092    0.0125   -0.0415    0.0270   -0.0216   -0.0407    0.0209
          18    0.0400   -0.0539   -0.0021    0.0402   -0.1069    0.0600    0.1083   -0.0778
          19    0.0239   -0.0152   -0.0014    0.0079   -0.0100    0.0125   -0.0047   -0.0218
          20   -0.0193    0.0039   -0.0051    0.0495    0.0094    0.0131   -0.0221   -0.0313
          21   -0.0347    0.0097   -0.0058   -0.0040   -0.0117   -0.0003   -0.0331   -0.0057
          22   -0.0018   -0.0026   -0.0061    0.0304   -0.0066    0.0165   -0.0322   -0.0407
          23   -0.0434    0.0152   -0.0090    0.0783   -0.0089    0.0259   -0.0259   -0.0743
          24   -0.0474    0.0155   -0.0092    0.0001    0.0228   -0.0115   -0.0813    0.0193
          25    0.0604   -0.0311    0.0064   -0.0290   -0.0163    0.0067    0.0325    0.0078
          26   -0.0232    0.0080   -0.0144    0.0598    0.0181    0.0173   -0.0372   -0.0335
          27   -0.0568    0.0157    0.0045    0.0066   -0.0235   -0.0024   -0.0375   -0.0278
          28    0.0321    0.0000    0.0146   -0.0319   -0.0095   -0.0024   -0.0054   -0.0048
          29    0.0023    0.0117    0.0112    0.0025    0.0137   -0.0098    0.0322    0.0341
          30   -0.0243   -0.0338   -0.0118   -0.0249   -0.0311    0.0016    0.0118    0.0062
          31    0.0302   -0.0166    0.0116   -0.0745   -0.0297    0.0043   -0.0376   -0.0431
          32    0.0053    0.0049    0.0137   -0.0277   -0.0243    0.0057    0.0092    0.0191
          33   -0.0162   -0.0305   -0.0048   -0.0413   -0.0854    0.0259   -0.0018    0.0143
          34    0.0262   -0.0038    0.0119   -0.0347   -0.0160    0.0007   -0.0077   -0.0056
          35   -0.0199    0.0199    0.0026    0.0508    0.0078   -0.0002    0.0719    0.0923
          36   -0.0644   -0.0518   -0.0297   -0.0254   -0.0702    0.0216    0.0173    0.0273
          37    0.0774    0.0193    0.0360   -0.0393    0.0223   -0.0204   -0.0195   -0.0339
          38    0.0158    0.0193    0.0149    0.0224    0.1030   -0.0505    0.0433    0.0094
          39   -0.0209   -0.0325   -0.0099   -0.0278   -0.0394    0.0050    0.0089    0.0063
          40   -0.0062   -0.0032    0.0002   -0.0022   -0.0008   -0.0507   -0.0001   -0.0027
          41    0.0007   -0.0030   -0.0073   -0.0030    0.0072    0.0288    0.0015    0.0028
          42    0.0027    0.0067   -0.0042    0.0050   -0.0075    0.0075   -0.0018   -0.0002
          43   -0.0058   -0.0048    0.0024    0.0010    0.0032   -0.0258   -0.0030    0.0044
          44    0.0044    0.0033   -0.0289   -0.0033   -0.0000    0.0183   -0.0023    0.0020
          45   -0.0006    0.0057    0.0001   -0.0068    0.0123   -0.0033    0.0169   -0.0162
          46   -0.0042    0.0022   -0.0106   -0.0058    0.0007   -0.0247    0.0027   -0.0078
          47    0.0038   -0.0000   -0.0125    0.0022    0.0042    0.0208    0.0035   -0.0004
          48   -0.0036   -0.0008   -0.0085   -0.0085    0.0086   -0.0010   -0.0111    0.0221
          49   -0.0044   -0.0005   -0.0048    0.0026   -0.0065   -0.0318   -0.0038    0.0043
          50    0.0057    0.0037   -0.0296    0.0012   -0.0001    0.0157   -0.0028    0.0008
          51   -0.0030    0.0158    0.0013   -0.0216    0.0163   -0.0117    0.0198   -0.0145
          52   -0.0150   -0.0192    0.0574   -0.0078    0.0223    0.0818    0.0023   -0.0033
          53    0.0052    0.0048   -0.0304   -0.0049    0.0027    0.0095    0.0029   -0.0030
          54   -0.0028    0.0004   -0.0014    0.0025   -0.0026    0.0190   -0.0079    0.0071
          55   -0.0005    0.0011   -0.0074    0.0010   -0.0012   -0.0288    0.0030   -0.0085
          56    0.0076    0.0097   -0.0242    0.0013   -0.0002    0.0255    0.0047   -0.0067
          57   -0.0134   -0.0040   -0.0117   -0.0187    0.0185   -0.0149   -0.0137    0.0284
          58   -0.0053    0.0057   -0.0293   -0.0160    0.0209    0.0527    0.0010    0.0042
          59    0.0013   -0.0078    0.0089    0.0091   -0.0171   -0.0802   -0.0030   -0.0015
          60    0.0038    0.0043    0.0002    0.0047   -0.0031   -0.0108    0.0062   -0.0085
          61    0.0011    0.0053   -0.0142   -0.0036    0.0005   -0.0398    0.0103   -0.0182
          62    0.0166    0.0072   -0.0230    0.0005    0.0089    0.0194    0.0166   -0.0124
          63   -0.0256    0.0045   -0.0182   -0.0216    0.0037   -0.0158   -0.0241    0.0257
          64    0.0028    0.0224   -0.0190    0.0071   -0.0149   -0.0224   -0.0080    0.0078
          65   -0.0109   -0.0354    0.0650    0.0095   -0.0012   -0.0154   -0.0068    0.0061
          66    0.0137    0.0715    0.0488    0.0114   -0.0158    0.0131   -0.0032    0.0039
          67    0.0335    0.0415   -0.0895   -0.0058    0.0004   -0.0085    0.0015   -0.0042
          68   -0.0546   -0.0627    0.0609    0.0011   -0.0008   -0.0251   -0.0004    0.0026
          69    0.0685    0.1048    0.1049    0.0347   -0.0273    0.0210   -0.0213    0.0193
          70    0.0032    0.0679   -0.0105    0.0306   -0.0460    0.0061   -0.0271    0.0264
          71    0.0570   -0.0112    0.1431    0.0309   -0.0016   -0.0196   -0.0232    0.0173
          72    0.0262    0.0822    0.0642    0.0186   -0.0205    0.0164   -0.0091    0.0091
          73   -0.0203   -0.0175    0.0288    0.0034   -0.0087   -0.0505   -0.0039    0.0063
          74   -0.0491   -0.0707    0.0976    0.0065   -0.0017   -0.0363   -0.0038    0.0071
          75   -0.0416    0.0715    0.0151    0.0124   -0.0349    0.0276   -0.0054    0.0108


   Root No.      17        18        19        20        21        22        23        24

                17 A      18 A      19 A      20 A      21 A      22 A      23 A      24 A   

                 463.4     554.4     585.2     616.3     619.6     660.8     717.6     799.8
  
           1    0.0188   -0.0036   -0.0047   -0.0022    0.0010    0.0021    0.0008   -0.0013
           2    0.0084    0.0017   -0.0004   -0.0221    0.0118   -0.0006    0.0022   -0.0032
           3   -0.0291   -0.0067    0.0056   -0.0067    0.0058   -0.0209   -0.0034    0.0079
           4    0.0159   -0.0039   -0.0049   -0.0010   -0.0003    0.0023    0.0016   -0.0009
           5    0.0112   -0.0027   -0.0051   -0.0712    0.0352   -0.0024    0.0034   -0.0075
           6   -0.0330    0.0080    0.0315   -0.0099    0.0139   -0.0437   -0.0253   -0.0338
           7   -0.0033    0.0002   -0.0033    0.0537   -0.0298    0.0011   -0.0076    0.0108
           8   -0.0073    0.0047   -0.0017    0.0201   -0.0126    0.0099   -0.0010    0.0084
           9    0.0302    0.0061   -0.0011    0.0200   -0.0103   -0.0022   -0.0054   -0.0070
          10   -0.0244   -0.0016    0.0025    0.0534   -0.0286   -0.0052   -0.0110   -0.0291
          11   -0.0293    0.0084    0.0049    0.0127   -0.0072   -0.0004   -0.0008   -0.0261
          12    0.1027    0.0117   -0.0210    0.0005   -0.0026    0.0165    0.0104    0.1281
          13    0.0054    0.0030   -0.0007   -0.0272    0.0162   -0.0107    0.0060    0.0024
          14    0.0084    0.0052   -0.0048    0.0704   -0.0416    0.0058   -0.0077    0.0214
          15   -0.0245    0.0010    0.0042    0.0138   -0.0050    0.0013   -0.0015   -0.0319
          16    0.0225    0.0081    0.0047   -0.0217    0.0143   -0.0202    0.0073   -0.0459
          17    0.0287    0.0097    0.0010    0.0709   -0.0413   -0.0049   -0.0055   -0.0384
          18   -0.0810   -0.0046   -0.0085   -0.0314    0.0206    0.0307   -0.0008    0.1431
          19   -0.0069    0.0011    0.0009   -0.0232    0.0129    0.0061    0.0012   -0.0015
          20   -0.0020   -0.0013   -0.0027   -0.0085    0.0002    0.0203    0.0008   -0.0182
          21    0.0228    0.0103    0.0053    0.0003    0.0043   -0.0180   -0.0059   -0.0146
          22    0.0106    0.0035   -0.0044   -0.1145    0.0631    0.0123   -0.0104    0.0362
          23    0.0273    0.0111   -0.0158   -0.1101    0.0525    0.0316   -0.0359    0.1116
          24    0.0091   -0.0064    0.0110   -0.0389    0.0307   -0.0192    0.0285   -0.1242
          25   -0.0239   -0.0030    0.0144    0.1047   -0.0530    0.0004    0.0055   -0.0715
          26    0.0110   -0.0041    0.0152   -0.0550    0.0263    0.0322   -0.0038   -0.1070
          27    0.0175    0.0195   -0.0363   -0.0277    0.0157   -0.0344   -0.0065    0.2054
          28   -0.0010    0.0007   -0.0013   -0.0063    0.0030   -0.0033   -0.0009   -0.0028
          29    0.0112   -0.0011   -0.0003   -0.0387    0.0236   -0.0088    0.0009   -0.0066
          30    0.0037   -0.0007    0.0021   -0.0124    0.0054   -0.0074   -0.0021    0.0006
          31   -0.0060    0.0098    0.0002    0.0089   -0.0028    0.0073    0.0028   -0.0012
          32    0.0148    0.0061   -0.0030   -0.0288    0.0191    0.0048    0.0058   -0.0138
          33    0.0172    0.0072   -0.0051   -0.0068    0.0034    0.0107    0.0040   -0.0170
          34    0.0003    0.0027   -0.0026   -0.0027    0.0016   -0.0001    0.0003   -0.0042
          35    0.0319   -0.0089   -0.0042   -0.0535    0.0295   -0.0089    0.0011   -0.0187
          36    0.0213    0.0065   -0.0060   -0.0093    0.0056    0.0065    0.0018   -0.0199
          37   -0.0213   -0.0018    0.0039   -0.0032    0.0004   -0.0114   -0.0012    0.0155
          38   -0.0184   -0.0111    0.0081   -0.0450    0.0302   -0.0366   -0.0050    0.0236
          39    0.0051    0.0008    0.0009   -0.0098    0.0037   -0.0034   -0.0007   -0.0029
          40    0.0048    0.0022   -0.0498    0.0180    0.0659    0.0180   -0.0099   -0.0051
          41   -0.0080    0.0467   -0.0136   -0.0104   -0.0286    0.0033    0.0006    0.0000
          42   -0.0030    0.0005   -0.0176    0.0018    0.0035   -0.0572   -0.0070   -0.0008
          43   -0.0175    0.0606   -0.0299    0.0145    0.0542   -0.0233   -0.0235   -0.0007
          44   -0.0089   -0.0376   -0.0354    0.0129    0.0480   -0.0182   -0.0179    0.0017
          45    0.0429    0.0454    0.0040    0.0080    0.0215    0.1099    0.1254    0.0015
          46    0.0171   -0.0502   -0.0342   -0.0128   -0.0556   -0.0083    0.0157   -0.0031
          47   -0.0075    0.0757   -0.0148   -0.0121   -0.0473   -0.0523    0.0240   -0.0003
          48   -0.0410    0.0037    0.0051   -0.0120   -0.0143    0.1455   -0.0905    0.0026
          49   -0.0060    0.0400    0.0533    0.0003    0.0033   -0.0102   -0.0048    0.0024
          50   -0.0093   -0.0586    0.0455    0.0053    0.0117    0.0011    0.0178    0.0024
          51    0.0571    0.0182    0.0335    0.0014    0.0041   -0.0281   -0.0776    0.0064
          52    0.0109   -0.0531    0.0250    0.0027    0.0051    0.0056    0.0072    0.0011
          53    0.0021   -0.0250   -0.0414    0.0165    0.0598    0.0105    0.0161    0.0024
          54   -0.0142   -0.0263   -0.0078    0.0029    0.0125   -0.0249   -0.0266    0.0008
          55    0.0131   -0.0465    0.0012   -0.0086   -0.0356    0.0159   -0.0062    0.0028
          56    0.0173    0.0049    0.0729    0.0065    0.0185    0.0035   -0.0321   -0.0027
          57   -0.0510   -0.0303    0.0215   -0.0008    0.0003   -0.0241    0.0716    0.0118
          58   -0.0116    0.0299   -0.0415   -0.0167   -0.0561    0.0097   -0.0058   -0.0021
          59    0.0043   -0.0362   -0.0060   -0.0171   -0.0626    0.0196   -0.0053   -0.0012
          60    0.0137   -0.0031   -0.0140   -0.0058   -0.0299   -0.0316    0.0217   -0.0006
          61    0.0377   -0.1452    0.0125    0.0031   -0.0152   -0.0146    0.0186   -0.0002
          62    0.0219   -0.0210    0.0789    0.0091    0.0314    0.0321   -0.0622   -0.0091
          63   -0.0295   -0.0724    0.0213    0.0052   -0.0036   -0.0921    0.1255    0.0184
          64   -0.0196    0.0287    0.0842    0.0033    0.0096   -0.0102    0.0206    0.0063
          65   -0.0125    0.0151    0.0171    0.0030    0.0115   -0.0061    0.0069    0.0029
          66   -0.0024   -0.0032   -0.0180    0.0004   -0.0005    0.0019   -0.0136   -0.0002
          67    0.0095   -0.0258    0.1372    0.0045    0.0073   -0.0151   -0.0036    0.0166
          68   -0.0050    0.0357    0.0107    0.0031    0.0130   -0.0135   -0.0130    0.0011
          69   -0.0362   -0.0018   -0.0484   -0.0006   -0.0013    0.0186    0.0388   -0.0062
          70   -0.0784   -0.0106    0.0479    0.0027    0.0071    0.0324    0.1341   -0.0039
          71   -0.0331    0.0370   -0.0127    0.0027    0.0109   -0.0025    0.0251   -0.0017
          72   -0.0149   -0.0045   -0.0268    0.0005   -0.0005    0.0086    0.0092   -0.0023
          73   -0.0079    0.0935    0.0606    0.0026    0.0140   -0.0309   -0.0265    0.0038
          74   -0.0101    0.0670   -0.0059    0.0030    0.0167   -0.0201   -0.0194   -0.0009
          75   -0.0259   -0.0265   -0.0289    0.0004   -0.0002    0.0230    0.0415   -0.0041


   Root No.      25        26        27        28        29        30        31        32

                25 A      26 A      27 A      28 A      29 A      30 A      31 A      32 A   

                 863.1     918.1     937.9     975.8     990.8    1011.9    1017.8    1022.4
  
           1   -0.0028   -0.0027    0.0065   -0.0018   -0.0028   -0.0046    0.0059    0.0051
           2   -0.0001   -0.0013   -0.0017    0.0018    0.0014    0.0009    0.0005    0.0007
           3    0.0028    0.0087   -0.0010   -0.0039   -0.0009   -0.0011    0.0054    0.0049
           4   -0.0021   -0.0005    0.0059   -0.0027   -0.0050   -0.0046    0.0027    0.0048
           5   -0.0108    0.0068    0.0250   -0.0027   -0.0354   -0.0404    0.0590    0.0383
           6    0.0751   -0.0903   -0.0852    0.1137    0.1881    0.0642    0.0287   -0.1029
           7   -0.0012    0.0089   -0.0049   -0.0057   -0.0009    0.0123   -0.0262   -0.0068
           8   -0.0087    0.0080    0.0087   -0.0067   -0.0010    0.0004    0.0013    0.0037
           9    0.0127   -0.0310    0.0091    0.0034    0.0080   -0.0086   -0.0180    0.0251
          10    0.0173   -0.0395    0.0182   -0.0051   -0.0086   -0.0125   -0.0375    0.0376
          11    0.0091   -0.0268    0.0135    0.0025   -0.0055   -0.0204    0.0056    0.0389
          12   -0.0508    0.1370   -0.0724    0.0060    0.0341    0.0704    0.0364   -0.1275
          13    0.0011    0.0029   -0.0092    0.0042    0.0070   -0.0017    0.0043    0.0070
          14    0.0022   -0.0019   -0.0004    0.0067    0.0095   -0.0059    0.0025    0.0153
          15    0.0053   -0.0056    0.0013   -0.0026   -0.0231    0.0037    0.0012   -0.0246
          16    0.0118   -0.0332    0.0226   -0.0085   -0.0377    0.0007    0.0074   -0.0284
          17    0.0172   -0.0377    0.0289   -0.0046   -0.0406   -0.0011    0.0063   -0.0333
          18   -0.0486    0.0748   -0.0406    0.0129    0.1143   -0.0251   -0.0082    0.1543
          19   -0.0047   -0.0022    0.0129   -0.0033   -0.0024   -0.0030    0.0068   -0.0063
          20   -0.0016    0.0086    0.0049    0.0026   -0.0022   -0.0042    0.0211   -0.0132
          21   -0.0002    0.0085   -0.0176    0.0004    0.0030    0.0008    0.0124    0.0028
          22   -0.0031   -0.0238    0.0286   -0.0090    0.0032    0.0022   -0.0532    0.0308
          23   -0.0075   -0.0592    0.0771   -0.0255   -0.0145   -0.0006   -0.0325   -0.0262
          24    0.0121    0.0598   -0.0880    0.0275    0.0302    0.0046   -0.0432    0.1038
          25   -0.0090    0.0422   -0.0101    0.0184    0.0042   -0.0144    0.1005   -0.0523
          26   -0.0321    0.0520    0.0279   -0.0377    0.0300    0.0246   -0.0401    0.0408
          27    0.0573   -0.1086   -0.0380    0.0539   -0.0586   -0.0401    0.0324   -0.0468
          28    0.0022   -0.0035   -0.0007    0.0082    0.0057   -0.0071    0.0215    0.0034
          29    0.0060   -0.0015   -0.0074   -0.0056    0.0036    0.0147   -0.0284   -0.0121
          30    0.0040    0.0107   -0.0088    0.0051   -0.0167   -0.0047   -0.0052   -0.0048
          31    0.0019   -0.0020   -0.0074   -0.0362    0.0079    0.0567   -0.1167   -0.0299
          32    0.0052   -0.0204   -0.0042   -0.0328    0.0332    0.0619   -0.1052   -0.0296
          33    0.0039   -0.0322    0.0056   -0.0177    0.0462    0.0379   -0.0423   -0.0123
          34    0.0015   -0.0077    0.0013    0.0012    0.0116    0.0013    0.0073    0.0012
          35    0.0058   -0.0303    0.0100    0.0455    0.0347   -0.0499    0.1508    0.0338
          36    0.0049   -0.0386    0.0121    0.0059    0.0501    0.0030    0.0362    0.0090
          37    0.0014    0.0411   -0.0197   -0.0158   -0.0548    0.0072   -0.0711   -0.0191
          38    0.0053    0.0729   -0.0357    0.0072   -0.1002   -0.0371   -0.0082   -0.0114
          39    0.0036    0.0002   -0.0044   -0.0004   -0.0014    0.0057   -0.0144   -0.0053
          40   -0.0414   -0.0002    0.0013    0.0551    0.0027   -0.0280   -0.0101   -0.0089
          41    0.0124    0.0068    0.0123    0.1161   -0.0084    0.0201   -0.0033    0.0066
          42   -0.0031    0.0019    0.0034    0.0360   -0.0019   -0.0001   -0.0026    0.0005
          43   -0.0426   -0.0104   -0.0072   -0.0544   -0.0040    0.0372    0.0123    0.0096
          44    0.0372    0.0026    0.0006   -0.0302    0.0018    0.0014    0.0020    0.0000
          45    0.0006   -0.0001    0.0005   -0.0138   -0.0027    0.0039    0.0026    0.0029
          46    0.0102    0.0045   -0.0021    0.0044    0.0059   -0.0223   -0.0055   -0.0042
          47   -0.0229   -0.0086   -0.0097   -0.0604   -0.0017    0.0066    0.0052    0.0015
          48    0.0018   -0.0013    0.0026   -0.0122    0.0030    0.0077    0.0034   -0.0035
          49    0.0193    0.0057    0.0069   -0.0025    0.0011   -0.0054   -0.0011   -0.0008
          50   -0.0434   -0.0132   -0.0151    0.0134   -0.0035    0.0008   -0.0010   -0.0001
          51    0.0055    0.0050    0.0054   -0.0048   -0.0030    0.0008    0.0015    0.0004
          52    0.0043   -0.0008   -0.0020   -0.0123    0.0008   -0.0036    0.0002   -0.0009
          53    0.0524    0.0051    0.0016   -0.0271    0.0005    0.0031    0.0039    0.0020
          54    0.0118    0.0011    0.0003   -0.0081    0.0002    0.0003    0.0008    0.0002
          55    0.0071   -0.0041    0.0039    0.0062   -0.0138    0.0538    0.0117    0.0154
          56   -0.0543    0.0015    0.0115   -0.0067    0.0133   -0.0282   -0.0080   -0.0116
          57   -0.0253   -0.0034    0.0125   -0.0031   -0.0059   -0.0118   -0.0050    0.0008
          58   -0.0051   -0.0005   -0.0049   -0.0163    0.0048   -0.0185   -0.0028   -0.0054
          59   -0.0021   -0.0008   -0.0039   -0.0269    0.0043   -0.0117   -0.0010   -0.0034
          60   -0.0027   -0.0004   -0.0022   -0.0105    0.0015   -0.0081   -0.0012   -0.0016
          61   -0.0406   -0.0020    0.0239    0.0923   -0.0166    0.1212    0.0101    0.0331
          62   -0.0430   -0.0276   -0.0863    0.0471   -0.0534   -0.0474   -0.0227    0.0320
          63   -0.0844    0.0387    0.1700   -0.0136    0.0884    0.0850    0.0189   -0.0470
          64    0.0573    0.0054   -0.0004    0.0037    0.0015   -0.0057   -0.0006   -0.0000
          65   -0.0035   -0.0063   -0.0138    0.0040   -0.0065    0.0139    0.0068    0.0037
          66   -0.0105    0.0038    0.0104   -0.0112   -0.0038    0.0040    0.0034    0.0057
          67   -0.0199   -0.0159   -0.0320    0.0008   -0.0380    0.0708    0.0393    0.0294
          68    0.0189    0.0083    0.0144   -0.0073    0.0019   -0.0094   -0.0035    0.0019
          69    0.0041   -0.0061   -0.0142    0.0142    0.0141   -0.0197   -0.0120   -0.0164
          70    0.0326   -0.0322   -0.0767    0.0698    0.0074   -0.0138   -0.0172   -0.0263
          71    0.0353    0.0054    0.0010    0.0131    0.0132   -0.0301   -0.0168   -0.0137
          72   -0.0036   -0.0013   -0.0030    0.0044    0.0015   -0.0058   -0.0041   -0.0033
          73    0.1292    0.0429    0.0656   -0.0367    0.0254   -0.0588   -0.0185   -0.0071
          74    0.0629    0.0226    0.0364   -0.0218    0.0181   -0.0377   -0.0125   -0.0075
          75   -0.0300   -0.0188   -0.0349    0.0273   -0.0006    0.0077    0.0000   -0.0084


   Root No.      33        34        35        36        37        38        39        40

                33 A      34 A      35 A      36 A      37 A      38 A      39 A      40 A   

                1035.8    1043.0    1066.4    1091.1    1135.0    1170.3    1205.0    1221.6
  
           1   -0.0032    0.0021    0.0004   -0.0009   -0.0041    0.0587   -0.0009    0.0050
           2   -0.0028    0.0027    0.0017   -0.0034   -0.0016    0.0311   -0.0009    0.0024
           3   -0.0060   -0.0033   -0.0250    0.0270    0.0144    0.0100   -0.0003    0.0073
           4   -0.0012    0.0011   -0.0005    0.0004   -0.0026    0.0426    0.0007    0.0050
           5   -0.0011   -0.0104   -0.0108    0.0363    0.0167   -0.0080   -0.0050    0.0205
           6   -0.0285    0.0392    0.0450   -0.1198   -0.0675    0.0601    0.0032   -0.0246
           7   -0.0074    0.0064   -0.0021    0.0019    0.0034   -0.0428   -0.0003   -0.0025
           8   -0.0188    0.0096   -0.0029    0.0041   -0.0029    0.0026    0.0010   -0.0010
           9    0.0133   -0.0011    0.0134   -0.0078   -0.0071   -0.0127   -0.0025   -0.0014
          10    0.0201   -0.0021    0.0158   -0.0016    0.0008   -0.0257   -0.0041   -0.0007
          11    0.0006    0.0055    0.0210   -0.0095    0.0031   -0.1822    0.0021   -0.0100
          12   -0.0821    0.0278   -0.0487    0.0045    0.0039   -0.0482    0.0070   -0.0045
          13    0.0113   -0.0072    0.0014   -0.0011   -0.0023   -0.0075   -0.0010    0.0039
          14   -0.0052    0.0051    0.0061   -0.0023   -0.0017    0.0182   -0.0003    0.0015
          15   -0.0176    0.0111   -0.0046   -0.0021    0.0188    0.0003    0.0006   -0.0010
          16   -0.0519    0.0326   -0.0005   -0.0045    0.0126    0.0850   -0.0002    0.0127
          17   -0.0571    0.0375    0.0014   -0.0047    0.0137    0.0767   -0.0008    0.0070
          18    0.0277   -0.0142    0.0171    0.0012   -0.0200    0.0604    0.0109    0.0071
          19    0.0010   -0.0002   -0.0004    0.0023    0.0022    0.0191   -0.0001   -0.0027
          20    0.0231   -0.0150   -0.0042    0.0026    0.0097    0.0092    0.0014   -0.0030
          21    0.0087   -0.0142   -0.0021    0.0040   -0.0359    0.0056   -0.0049    0.0096
          22   -0.0720    0.0553    0.0109   -0.0041    0.0064    0.0313   -0.0066    0.0013
          23   -0.0545    0.0296    0.0149    0.0201   -0.1411   -0.0036   -0.0542    0.0309
          24   -0.0416    0.0461   -0.0065   -0.0379    0.2092    0.0538    0.0604   -0.0390
          25    0.1046   -0.0817   -0.0130    0.0201   -0.0683    0.0493   -0.0225    0.0154
          26   -0.0559    0.0408    0.0135    0.0164   -0.0759   -0.0148   -0.0062    0.0127
          27    0.0475   -0.0352   -0.0211   -0.0366    0.1739    0.0255    0.0276   -0.0323
          28   -0.0067    0.0021    0.0009   -0.0005    0.0036   -0.0445    0.0007   -0.0046
          29    0.0176   -0.0098   -0.0073    0.0037    0.0022   -0.0361    0.0013   -0.0028
          30    0.0072    0.0049    0.0269   -0.0223   -0.0076   -0.0125    0.0003   -0.0027
          31    0.0446   -0.0216   -0.0370    0.0205   -0.0005    0.0223    0.0030    0.0086
          32    0.0407   -0.0321   -0.0641    0.0425    0.0115    0.0092   -0.0054    0.0009
          33    0.0110   -0.0229   -0.0616    0.0434    0.0158    0.0044   -0.0125   -0.0069
          34   -0.0038   -0.0031   -0.0110    0.0090    0.0059   -0.0261    0.0004   -0.0028
          35   -0.0502    0.0193   -0.0036    0.0056    0.0167   -0.1533    0.0092   -0.0043
          36   -0.0186   -0.0090   -0.0466    0.0380    0.0187   -0.0424    0.0013   -0.0018
          37    0.0332   -0.0026    0.0534   -0.0358   -0.0159    0.0259    0.0020    0.0010
          38    0.0208    0.0171    0.1328   -0.0951   -0.0276   -0.0135   -0.0143   -0.0201
          39    0.0075   -0.0010    0.0021   -0.0034   -0.0018   -0.0014    0.0017    0.0016
          40    0.0059    0.0118   -0.0050    0.0022   -0.0033   -0.0020    0.0470    0.0363
          41   -0.0004   -0.0032   -0.0046    0.0011   -0.0019    0.0008   -0.0182   -0.0223
          42    0.0000    0.0008   -0.0023    0.0018   -0.0022    0.0004    0.0021   -0.0015
          43   -0.0066   -0.0158    0.0074   -0.0096    0.0076    0.0018   -0.0657   -0.0421
          44   -0.0006    0.0004    0.0019    0.0032   -0.0019    0.0006    0.0013    0.0009
          45    0.0008   -0.0016   -0.0001   -0.0055    0.0029   -0.0018   -0.0079   -0.0057
          46    0.0010    0.0045   -0.0033    0.0026    0.0029    0.0015   -0.0588   -0.0364
          47   -0.0011   -0.0010    0.0033   -0.0038   -0.0019   -0.0016    0.0665    0.0519
          48    0.0035    0.0002    0.0066   -0.0011    0.0050   -0.0021    0.0035    0.0162
          49   -0.0009   -0.0024    0.0015    0.0063   -0.0024    0.0017    0.0057   -0.0479
          50    0.0008   -0.0025   -0.0054   -0.0178    0.0083   -0.0025    0.0245   -0.0022
          51   -0.0028   -0.0025    0.0161    0.0311    0.0070    0.0034    0.0092    0.0093
          52    0.0004    0.0013    0.0001    0.0001   -0.0001   -0.0004    0.0069    0.0048
          53   -0.0008    0.0010    0.0014    0.0033   -0.0020    0.0010   -0.0042   -0.0056
          54   -0.0004    0.0002    0.0008    0.0017   -0.0008    0.0004   -0.0000   -0.0003
          55   -0.0065   -0.0179    0.0016   -0.0040   -0.0118    0.0017    0.0982   -0.0307
          56   -0.0024   -0.0116    0.0048   -0.0033    0.0129    0.0005   -0.0066   -0.0371
          57   -0.0103   -0.0087   -0.0126   -0.0009   -0.0285    0.0003    0.0049   -0.0204
          58    0.0024    0.0057   -0.0002    0.0003    0.0036   -0.0007   -0.0138    0.0150
          59    0.0008    0.0023    0.0006   -0.0001    0.0028   -0.0002   -0.0164    0.0024
          60    0.0001    0.0016   -0.0009    0.0002    0.0002    0.0000   -0.0068    0.0023
          61   -0.0421   -0.0962    0.0196   -0.0509    0.0499   -0.0124   -0.2184    0.2968
          62   -0.0653   -0.0829   -0.0591   -0.0320   -0.0492   -0.0028   -0.1441    0.0963
          63    0.0535    0.0294    0.1000    0.0007    0.1154   -0.0078   -0.0353    0.0749
          64    0.0029    0.0094   -0.0065   -0.0027    0.0015   -0.0017   -0.0061    0.0454
          65    0.0133    0.0294    0.0024    0.0194   -0.0043    0.0003   -0.0216    0.0077
          66    0.0103    0.0136   -0.0230   -0.0280   -0.0045   -0.0009   -0.0044   -0.0099
          67    0.0777    0.1549   -0.0477    0.0161   -0.0270   -0.0035   -0.0885    0.0534
          68    0.0029   -0.0010   -0.0193   -0.0306    0.0008    0.0007   -0.0000   -0.0033
          69   -0.0354   -0.0574    0.0519    0.0466    0.0113    0.0000    0.0275   -0.0072
          70   -0.0373   -0.0417    0.1246    0.1525    0.0158    0.0113   -0.0046    0.0114
          71   -0.0316   -0.0562    0.0258    0.0042    0.0131    0.0042    0.0181    0.0215
          72   -0.0076   -0.0137    0.0106    0.0056    0.0026    0.0024    0.0044   -0.0036
          73   -0.0309   -0.0683   -0.0451   -0.0970    0.0125   -0.0087    0.0402    0.0516
          74   -0.0273   -0.0555   -0.0152   -0.0486    0.0108   -0.0055    0.0249    0.0323
          75   -0.0136   -0.0116    0.0487    0.0659    0.0040    0.0028   -0.0043    0.0131


   Root No.      41        42        43        44        45        46        47        48

                41 A      42 A      43 A      44 A      45 A      46 A      47 A      48 A   

                1264.9    1271.7    1274.3    1280.5    1285.2    1303.9    1314.6    1330.2
  
           1   -0.0051    0.0052   -0.0079    0.0247    0.0041    0.0234    0.0002   -0.0036
           2   -0.0094    0.0026   -0.0049    0.0286    0.0024    0.0067    0.0043   -0.0367
           3   -0.0032    0.0030   -0.0030    0.0073    0.0006    0.0059   -0.0053   -0.0079
           4   -0.0061    0.0043   -0.0070    0.0204    0.0037    0.0201    0.0001    0.0042
           5   -0.0516    0.0398   -0.0456    0.1218    0.0456   -0.1684   -0.0837    0.3001
           6   -0.0077    0.0076   -0.0174    0.0477    0.0167   -0.0235    0.0253    0.0693
           7   -0.0059    0.0013   -0.0016    0.0085    0.0019   -0.0113   -0.0049    0.0171
           8   -0.0005    0.0007   -0.0017    0.0102    0.0016    0.0053    0.0117   -0.0225
           9   -0.0026    0.0003   -0.0010    0.0075    0.0015    0.0013    0.0031   -0.0052
          10   -0.0053    0.0006    0.0012    0.0015    0.0025   -0.0165   -0.0054    0.0111
          11   -0.0326    0.0270   -0.0455    0.1618    0.0102    0.1874   -0.0030    0.0482
          12   -0.0070    0.0057   -0.0139    0.0379    0.0005    0.0304   -0.0009    0.0222
          13   -0.0033    0.0013   -0.0019    0.0105   -0.0006    0.0103   -0.0063   -0.0037
          14    0.0035   -0.0019    0.0034   -0.0157   -0.0008   -0.0248   -0.0015    0.0013
          15   -0.0006    0.0002   -0.0003    0.0011    0.0002   -0.0062   -0.0016   -0.0019
          16    0.0362   -0.0108    0.0206   -0.1154   -0.0256    0.1563   -0.0722    0.1721
          17    0.0294   -0.0099    0.0173   -0.0962   -0.0176    0.0786   -0.0440    0.1179
          18    0.0241   -0.0075    0.0142   -0.0761   -0.0144    0.0843   -0.0352    0.1023
          19    0.0025   -0.0018    0.0023   -0.0081    0.0014   -0.0207    0.0115   -0.0164
          20    0.0029   -0.0010    0.0006   -0.0052   -0.0006    0.0140    0.0038    0.0058
          21    0.0008   -0.0003    0.0017   -0.0057   -0.0019   -0.0027   -0.0069   -0.0026
          22    0.0024   -0.0021    0.0049   -0.0211    0.0046   -0.1109    0.0132   -0.0196
          23    0.0008    0.0004    0.0062   -0.0213   -0.0043   -0.0630   -0.0282   -0.0004
          24    0.0068   -0.0042    0.0005   -0.0145    0.0102   -0.0691    0.0472   -0.0034
          25    0.0056   -0.0006    0.0043   -0.0264    0.0013   -0.0732   -0.0016    0.0087
          26   -0.0007    0.0003    0.0028   -0.0021   -0.0048    0.0222   -0.0173   -0.0091
          27    0.0049   -0.0040   -0.0031    0.0006    0.0053    0.0143    0.0406    0.0023
          28   -0.0163   -0.0089    0.0080   -0.0279   -0.0045   -0.0004    0.0050   -0.0080
          29    0.0191   -0.0034    0.0067   -0.0221   -0.0073   -0.0071   -0.0009    0.0183
          30    0.0043    0.0124   -0.0088   -0.0159    0.0133   -0.0013    0.0008    0.0014
          31    0.0569    0.1019   -0.0784   -0.0442    0.1005    0.0241   -0.0159   -0.0232
          32   -0.0657   -0.0011   -0.0039   -0.0280    0.0195    0.0142   -0.0073    0.0066
          33   -0.2026   -0.0963    0.0623   -0.0109   -0.0519    0.0119    0.0091    0.0131
          34    0.0141   -0.0290    0.0260    0.0033   -0.0347   -0.0002    0.0042   -0.0041
          35    0.0820    0.0595   -0.0355   -0.0810    0.0500   -0.0002   -0.0031   -0.0718
          36    0.1362   -0.1007    0.0971    0.0829   -0.1441   -0.0199    0.0034    0.0097
          37    0.2241   -0.0282    0.0420    0.0903   -0.0774   -0.0116   -0.0069    0.0127
          38   -0.1455   -0.0827    0.0562   -0.0115   -0.0411    0.0043    0.0115   -0.0006
          39    0.0475    0.0140   -0.0067    0.0044    0.0026   -0.0022   -0.0022    0.0022
          40   -0.0010   -0.0021   -0.0008   -0.0002   -0.0006    0.0004    0.0056    0.0008
          41    0.0003    0.0004    0.0016    0.0004    0.0004    0.0007   -0.0099   -0.0022
          42    0.0001   -0.0002    0.0002    0.0001    0.0001    0.0003   -0.0013   -0.0006
          43    0.0006    0.0046    0.0031    0.0008   -0.0002   -0.0022   -0.0339   -0.0080
          44    0.0006   -0.0008   -0.0007   -0.0005    0.0004    0.0005    0.0070    0.0011
          45   -0.0000    0.0003    0.0007    0.0001    0.0003   -0.0015   -0.0048    0.0004
          46    0.0008    0.0020    0.0022    0.0010    0.0009    0.0008   -0.0144   -0.0031
          47   -0.0011   -0.0023   -0.0030   -0.0011   -0.0014   -0.0015    0.0184    0.0037
          48   -0.0005   -0.0002   -0.0007   -0.0000   -0.0009    0.0010    0.0006    0.0009
          49    0.0035   -0.0029   -0.0048   -0.0014    0.0030    0.0033    0.0696    0.0213
          50   -0.0036    0.0035    0.0053    0.0016   -0.0035   -0.0034   -0.0620   -0.0121
          51   -0.0018    0.0027   -0.0001    0.0006   -0.0033    0.0010   -0.0206   -0.0087
          52    0.0000   -0.0005   -0.0001    0.0000   -0.0002   -0.0001    0.0014    0.0005
          53    0.0006    0.0002   -0.0014    0.0001    0.0004    0.0005    0.0139    0.0036
          54    0.0005    0.0002   -0.0004    0.0000   -0.0001    0.0002    0.0032    0.0006
          55   -0.0007   -0.0005    0.0009   -0.0000    0.0011   -0.0011    0.0029    0.0011
          56    0.0022   -0.0014   -0.0014    0.0003    0.0039    0.0017    0.0222    0.0068
          57    0.0019   -0.0018   -0.0003   -0.0014    0.0024   -0.0004    0.0160    0.0018
          58   -0.0001    0.0001   -0.0002   -0.0001   -0.0003   -0.0002   -0.0011   -0.0005
          59    0.0001    0.0003    0.0001   -0.0000    0.0000   -0.0001   -0.0021   -0.0006
          60    0.0001    0.0001    0.0000   -0.0001    0.0000   -0.0002   -0.0005   -0.0003
          61    0.0074   -0.0169   -0.0250   -0.0087   -0.0022    0.0042    0.1291    0.0268
          62    0.0085   -0.0128   -0.0146   -0.0057    0.0048    0.0045    0.0990    0.0182
          63   -0.0018    0.0006   -0.0036    0.0003   -0.0034   -0.0012    0.0016    0.0048
          64   -0.0043    0.0061    0.0029    0.0007   -0.0093   -0.0020   -0.0385   -0.0128
          65    0.0043   -0.0191   -0.0105   -0.0004    0.0080    0.0008    0.0025   -0.0005
          66   -0.0015   -0.0003   -0.0169   -0.0029   -0.0146   -0.0016    0.0086    0.0029
          67    0.0099    0.0117    0.0924    0.0108    0.0736    0.0093    0.0638    0.0175
          68   -0.0260    0.0675   -0.0536   -0.0132   -0.1186   -0.0102   -0.0032   -0.0051
          69    0.0389   -0.1399    0.0168    0.0146    0.1501    0.0102   -0.0486   -0.0069
          70   -0.0050   -0.0164   -0.1117   -0.0175   -0.0659   -0.0053   -0.0168   -0.0108
          71   -0.0429    0.2001    0.1128    0.0030   -0.0836   -0.0018    0.0264    0.0024
          72   -0.0096    0.0360   -0.0014   -0.0031   -0.0312   -0.0017    0.0078    0.0007
          73    0.0137   -0.0514    0.0102    0.0062    0.0634   -0.0003   -0.0816   -0.0161
          74    0.0155   -0.0268    0.0708    0.0136    0.0950    0.0056   -0.0440   -0.0056
          75   -0.0025    0.0930    0.2005    0.0252    0.0905    0.0144    0.0484    0.0140


   Root No.      49        50        51        52        53        54        55        56

                49 A      50 A      51 A      52 A      53 A      54 A      55 A      56 A   

                1365.2    1386.9    1391.3    1435.6    1511.1    1655.7    1669.3    1882.4
  
           1    0.0163    0.0017   -0.0058    0.0215   -0.0056   -0.0039    0.0498   -0.0016
           2   -0.0173    0.0012    0.0038   -0.0503    0.0283    0.0153   -0.1262    0.0059
           3    0.0023    0.0016    0.0009   -0.0040    0.0219    0.0062   -0.0155    0.0036
           4    0.0150    0.0029   -0.0086    0.0211   -0.0040   -0.0039    0.0464    0.0024
           5   -0.0705   -0.0204    0.0362    0.0115   -0.0266   -0.0171    0.0265    0.0047
           6   -0.0174   -0.0081    0.0055    0.0074   -0.0561   -0.0251    0.0374   -0.0002
           7   -0.0165   -0.0022    0.0065   -0.0427   -0.0090   -0.0236   -0.0599    0.0017
           8   -0.0192    0.0005   -0.0046   -0.0349   -0.0540   -0.0577    0.1265   -0.0053
           9   -0.0102   -0.0004    0.0007   -0.0256   -0.0173   -0.0228    0.0085   -0.0009
          10   -0.0260   -0.0027    0.0063   -0.0458   -0.0005   -0.0040   -0.0330    0.0024
          11    0.2066    0.0097   -0.0300    0.1281   -0.0145   -0.0612   -0.0917    0.0011
          12    0.0352    0.0016   -0.0036    0.0171   -0.0132   -0.0210   -0.0215    0.0003
          13   -0.0198    0.0013    0.0026   -0.0140    0.0531    0.1203    0.0677    0.0017
          14    0.0139    0.0006   -0.0008    0.0620    0.0408    0.0580   -0.0104    0.0016
          15   -0.0003    0.0005    0.0003    0.0112    0.0294    0.0604    0.0220    0.0012
          16   -0.0075   -0.0068    0.0182   -0.1003   -0.0052   -0.0073   -0.0656    0.0004
          17    0.0216   -0.0045    0.0097   -0.0112   -0.0024   -0.0255   -0.0710    0.0027
          18   -0.0000   -0.0040    0.0090   -0.0325   -0.0215   -0.0284   -0.0479    0.0013
          19   -0.0130   -0.0013   -0.0037    0.0622   -0.0329   -0.0885   -0.0579   -0.0014
          20   -0.0046   -0.0012   -0.0005   -0.0070   -0.0215   -0.0141   -0.0014    0.0017
          21   -0.0042    0.0007    0.0005    0.0158    0.0066   -0.0292   -0.0216   -0.0032
          22    0.1683    0.0045   -0.0054   -0.0484   -0.0033   -0.0137   -0.0156    0.0020
          23    0.1459    0.0069    0.0016   -0.0895    0.0596    0.0564    0.0257    0.0069
          24    0.1268   -0.0007   -0.0081   -0.0531   -0.0629   -0.0101    0.0107    0.0079
          25    0.2100    0.0047   -0.0018   -0.1576   -0.0314   -0.0314    0.0055    0.0038
          26   -0.0907   -0.0005    0.0011    0.1002    0.0209   -0.0198   -0.0304   -0.0105
          27   -0.0185   -0.0046   -0.0032    0.0113   -0.0513   -0.0227   -0.0175    0.0038
          28   -0.0015    0.0076   -0.0185   -0.0028    0.0005    0.0003   -0.0009   -0.0004
          29    0.0038    0.0141   -0.0371    0.0144   -0.0016    0.0013    0.0166   -0.0008
          30   -0.0009    0.0032   -0.0122    0.0018   -0.0028    0.0004    0.0032   -0.0005
          31    0.0302   -0.0643    0.1434    0.0392   -0.0133   -0.0057    0.0464   -0.0017
          32    0.0304   -0.0435    0.1097    0.0424   -0.0092   -0.0005    0.0339   -0.0225
          33    0.0252   -0.0294    0.0920    0.0329   -0.0181   -0.0059    0.0430   -0.0055
          34    0.0020    0.0061   -0.0113   -0.0006    0.0015    0.0010   -0.0017   -0.0000
          35    0.0066   -0.0799    0.1929    0.0001   -0.0067   -0.0001   -0.0022    0.0024
          36    0.0066   -0.0184    0.0726    0.0067   -0.0068   -0.0008    0.0048   -0.0051
          37    0.0131   -0.0331    0.0879    0.0197   -0.0148   -0.0025    0.0195   -0.0059
          38    0.0197   -0.0551    0.1414    0.0271   -0.0299   -0.0045    0.0302   -0.0004
          39   -0.0013    0.0066   -0.0178   -0.0014    0.0048    0.0041   -0.0107    0.0017
          40   -0.0003   -0.0002    0.0006    0.0004   -0.0024    0.0036   -0.0010    0.0030
          41   -0.0005    0.0007    0.0001    0.0008   -0.0004   -0.0005    0.0008    0.0046
          42   -0.0001    0.0000   -0.0000    0.0006   -0.0023    0.0005    0.0001    0.0017
          43    0.0011    0.0021   -0.0022    0.0014   -0.0107    0.0034   -0.0008   -0.0159
          44    0.0002   -0.0004    0.0000    0.0010   -0.0065    0.0036    0.0020    0.2491
          45   -0.0002    0.0006   -0.0002   -0.0006    0.0031    0.0009   -0.0009    0.0498
          46   -0.0010    0.0006   -0.0004    0.0013   -0.0005   -0.0025    0.0015    0.1885
          47    0.0010   -0.0002    0.0012   -0.0012    0.0072   -0.0084    0.0008    0.1079
          48   -0.0010    0.0005    0.0007   -0.0011    0.0084   -0.0022    0.0010    0.0634
          49   -0.0014   -0.0024    0.0050   -0.0087    0.0816   -0.0756    0.0209    0.0037
          50    0.0022    0.0094    0.0027   -0.0030    0.0623   -0.0914    0.0272   -0.0218
          51    0.0010    0.0026   -0.0012    0.0011   -0.0063   -0.0234    0.0114   -0.0065
          52   -0.0001    0.0003    0.0000   -0.0003    0.0019   -0.0016    0.0004   -0.0044
          53   -0.0005   -0.0019   -0.0003   -0.0014    0.0048    0.0004   -0.0025   -0.1673
          54   -0.0001   -0.0003   -0.0003   -0.0002    0.0002   -0.0001   -0.0003   -0.0350
          55    0.0016   -0.0011   -0.0005    0.0004   -0.0303    0.0471   -0.0129   -0.0199
          56   -0.0010   -0.0048   -0.0014    0.0005   -0.0393    0.0825   -0.0214   -0.0074
          57    0.0001   -0.0030   -0.0017    0.0037   -0.0327    0.0204   -0.0079   -0.0018
          58    0.0005   -0.0002   -0.0005   -0.0003   -0.0014    0.0010   -0.0004   -0.1196
          59    0.0002   -0.0002   -0.0005    0.0000   -0.0027    0.0028   -0.0007   -0.0853
          60    0.0004   -0.0001   -0.0003   -0.0001   -0.0018    0.0009   -0.0002   -0.0450
          61   -0.0046   -0.0089    0.0015   -0.0021    0.0377   -0.0409    0.0071    0.0177
          62   -0.0056   -0.0112   -0.0024    0.0057   -0.0429    0.0321   -0.0122   -0.0027
          63    0.0029    0.0018    0.0029   -0.0078    0.0392    0.0168   -0.0032   -0.0167
          64    0.0010   -0.0416   -0.0178    0.0026   -0.0285    0.0207   -0.0053    0.0041
          65   -0.0002   -0.0121   -0.0052    0.0007   -0.0118    0.0107   -0.0030    0.0011
          66   -0.0007    0.0081    0.0047   -0.0006    0.0064   -0.0016   -0.0001    0.0004
          67   -0.0025    0.1794    0.0633    0.0105   -0.0645    0.0557   -0.0149   -0.0068
          68   -0.0011   -0.0317   -0.0072   -0.0002    0.0003   -0.0088    0.0039    0.0020
          69    0.0034   -0.0902   -0.0412   -0.0064    0.0404   -0.0330    0.0082   -0.0055
          70   -0.0028    0.1860    0.0659    0.0096   -0.0590    0.0231   -0.0035   -0.0057
          71    0.0002    0.0379    0.0165    0.0032   -0.0101    0.0013    0.0006    0.0060
          72   -0.0007    0.0428    0.0168    0.0019   -0.0093    0.0066   -0.0014   -0.0015
          73    0.0003    0.1535    0.0511    0.0069   -0.0230    0.0083   -0.0029   -0.0017
          74    0.0009    0.1308    0.0427    0.0049   -0.0121    0.0052   -0.0023   -0.0085
          75    0.0033   -0.0623   -0.0256   -0.0022    0.0189   -0.0093    0.0025    0.0045


   Root No.      57        58        59        60        61        62        63        64

                57 A      58 A      59 A      60 A      61 A      62 A      63 A      64 A   

                1947.9    2647.5    2656.1    2666.3    2668.2    2683.4    2709.0    2749.1
  
           1   -0.0015   -0.0017   -0.0004    0.0058   -0.0009   -0.0004   -0.0390   -0.0042
           2    0.0058   -0.0018    0.0001    0.0013   -0.0000   -0.0002    0.0030    0.0012
           3    0.0024    0.0020   -0.0000    0.0016   -0.0001    0.0000    0.0004   -0.0002
           4    0.0016    0.0379    0.0047   -0.0994    0.0141    0.0048    0.5278    0.0446
           5    0.0025   -0.0018   -0.0001    0.0030   -0.0005   -0.0021   -0.0046   -0.0013
           6    0.0062    0.0003    0.0001   -0.0001   -0.0000   -0.0008    0.0060    0.0002
           7    0.0016   -0.0005    0.0002    0.0002   -0.0002   -0.0006    0.0074   -0.0093
           8   -0.0049    0.0008   -0.0002   -0.0009    0.0001   -0.0010    0.0002   -0.0013
           9   -0.0014    0.0002    0.0001   -0.0002   -0.0002   -0.0003    0.0027   -0.0030
          10   -0.0021    0.0011   -0.0024    0.0069    0.0015    0.0037   -0.1306    0.1332
          11    0.0004    0.0000    0.0001    0.0003    0.0001   -0.0002   -0.0030   -0.0013
          12    0.0008    0.0001   -0.0008    0.0019    0.0012    0.0009   -0.0381    0.0379
          13    0.0025   -0.0001    0.0001   -0.0001   -0.0000    0.0037    0.0000    0.0098
          14    0.0017   -0.0000    0.0001    0.0001    0.0002   -0.0036    0.0013   -0.0167
          15    0.0006   -0.0000    0.0001    0.0000   -0.0000    0.0006    0.0005   -0.0028
          16   -0.0019    0.0006    0.0001    0.0015    0.0007   -0.0617    0.0091   -0.1548
          17    0.0028   -0.0009   -0.0000   -0.0019   -0.0014    0.0882   -0.0122    0.2087
          18    0.0027   -0.0003    0.0000   -0.0002    0.0001    0.0121   -0.0016    0.0262
          19   -0.0019    0.0000   -0.0001    0.0003   -0.0002   -0.0165    0.0009   -0.0104
          20   -0.0010    0.0000    0.0002   -0.0007    0.0005    0.0391    0.0002   -0.0099
          21    0.0003    0.0001    0.0000   -0.0004    0.0003    0.0238    0.0001   -0.0047
          22   -0.0049    0.0007    0.0006   -0.0063    0.0046    0.3537   -0.0076    0.0668
          23   -0.0107   -0.0003   -0.0004    0.0041   -0.0033   -0.2475    0.0079   -0.0579
          24   -0.0009   -0.0005   -0.0001    0.0027   -0.0020   -0.1638    0.0050   -0.0384
          25   -0.0054   -0.0001   -0.0008    0.0021   -0.0015   -0.1340   -0.0042    0.0806
          26    0.0089   -0.0001   -0.0016    0.0038   -0.0024   -0.2457   -0.0094    0.1742
          27   -0.0012   -0.0002   -0.0008    0.0021   -0.0013   -0.1418   -0.0052    0.1002
          28   -0.0008    0.0175    0.0007   -0.0316    0.0032   -0.0010   -0.0099   -0.0006
          29   -0.0013   -0.0243    0.0000    0.0086   -0.0014    0.0003    0.0032    0.0005
          30   -0.0010    0.0372   -0.0013    0.0208   -0.0014    0.0005    0.0027    0.0003
          31    0.0012   -0.1880    0.0025    0.0381   -0.0060    0.0012    0.0326    0.0041
          32   -0.0154    0.3830   -0.0026   -0.1025    0.0165   -0.0028   -0.0716   -0.0086
          33   -0.0009   -0.1829   -0.0000    0.0655   -0.0102    0.0016    0.0389    0.0044
          34   -0.0007   -0.0760   -0.0103    0.3467   -0.0339    0.0113    0.0506   -0.0005
          35    0.0037   -0.0176   -0.0002    0.0306   -0.0024    0.0010    0.0094    0.0006
          36   -0.0009    0.0342    0.0004   -0.0542    0.0046   -0.0019   -0.0068    0.0004
          37   -0.0025    0.0438   -0.0014    0.0131   -0.0008    0.0003    0.0041    0.0009
          38    0.0013   -0.0623    0.0026   -0.0376    0.0030   -0.0007   -0.0095   -0.0012
          39   -0.0008   -0.3206    0.0169   -0.2753    0.0232   -0.0060   -0.0791   -0.0095
          40   -0.0053   -0.0001   -0.0000    0.0000   -0.0000   -0.0001   -0.0001    0.0001
          41    0.0034   -0.0003   -0.0000    0.0001   -0.0001    0.0000    0.0001   -0.0002
          42    0.0004   -0.0001   -0.0000   -0.0000   -0.0000    0.0001    0.0001   -0.0000
          43    0.0065    0.0002    0.0001   -0.0002   -0.0003    0.0002    0.0006    0.0003
          44    0.2290    0.0017    0.0001   -0.0003    0.0007    0.0000   -0.0008   -0.0005
          45    0.0496    0.0004    0.0001   -0.0001    0.0002   -0.0000   -0.0001   -0.0001
          46   -0.2052   -0.0000    0.0001    0.0000   -0.0001    0.0004    0.0002   -0.0005
          47   -0.1443    0.0002    0.0001   -0.0000    0.0001   -0.0004   -0.0002    0.0005
          48   -0.0755    0.0001    0.0001    0.0000    0.0000   -0.0000   -0.0001    0.0002
          49    0.0359    0.0001   -0.0000    0.0001    0.0005   -0.0002   -0.0005   -0.0003
          50    0.0021   -0.0002   -0.0002   -0.0003   -0.0032   -0.0001    0.0001    0.0008
          51    0.0016   -0.0001   -0.0030   -0.0002    0.0001   -0.0001    0.0006    0.0004
          52   -0.0038   -0.0001   -0.0001   -0.0000   -0.0001   -0.0000   -0.0000   -0.0000
          53   -0.1386   -0.0009   -0.0001    0.0002   -0.0003   -0.0000    0.0003    0.0001
          54   -0.0291   -0.0003   -0.0001    0.0000   -0.0001    0.0000    0.0001    0.0000
          55    0.0184    0.0000   -0.0001    0.0000    0.0003    0.0003   -0.0001   -0.0050
          56   -0.0215    0.0001    0.0004    0.0000    0.0008   -0.0011    0.0004    0.0089
          57   -0.0024   -0.0000    0.0002   -0.0000    0.0004   -0.0001   -0.0000    0.0062
          58    0.1240   -0.0001   -0.0000   -0.0000    0.0000   -0.0001   -0.0000    0.0000
          59    0.0888   -0.0001   -0.0000    0.0000   -0.0000    0.0001    0.0000   -0.0000
          60    0.0467   -0.0000   -0.0000   -0.0000   -0.0000    0.0000    0.0000    0.0000
          61   -0.0020    0.0005    0.0023   -0.0002    0.0026   -0.0077    0.0012    0.0663
          62   -0.0187   -0.0008   -0.0037    0.0004   -0.0040    0.0144   -0.0024   -0.1157
          63   -0.0054   -0.0004   -0.0024    0.0003   -0.0031    0.0075   -0.0014   -0.0775
          64   -0.0053   -0.0003   -0.0093    0.0005    0.0108   -0.0001   -0.0002    0.0001
          65   -0.0014    0.0006   -0.0049   -0.0036   -0.0431    0.0005    0.0003    0.0002
          66    0.0014   -0.0009   -0.0457   -0.0011    0.0024    0.0001    0.0001   -0.0000
          67   -0.0121   -0.0003    0.1002    0.0128    0.1191   -0.0013    0.0002   -0.0008
          68    0.0027    0.0008    0.2553    0.0269    0.2596   -0.0028    0.0006   -0.0018
          69   -0.0004   -0.0013    0.1231    0.0158    0.1616   -0.0016    0.0006   -0.0009
          70   -0.0063   -0.0019   -0.0781   -0.0003    0.0205   -0.0000    0.0007   -0.0000
          71    0.0033   -0.0014   -0.0918   -0.0027   -0.0038    0.0003    0.0010   -0.0002
          72   -0.0001    0.0099    0.4461    0.0044   -0.0950   -0.0005   -0.0047    0.0010
          73   -0.0040    0.0066    0.0892   -0.0194   -0.2747    0.0030    0.0034    0.0001
          74   -0.0085   -0.0074   -0.1047    0.0206    0.2861   -0.0033   -0.0040    0.0001
          75    0.0038    0.0018    0.0091   -0.0071   -0.0968    0.0013    0.0016   -0.0000


   Root No.      65        66        67        68        69

                65 A      66 A      67 A      68 A      69 A   

                2752.6    2757.5    2762.0    2773.1    2773.9
  
           1   -0.0040   -0.0012   -0.0045   -0.0050    0.0025
           2    0.0013   -0.0004    0.0015   -0.0035    0.0014
           3    0.0002   -0.0001    0.0000   -0.0014    0.0007
           4    0.0413    0.0164    0.0496    0.0463   -0.0221
           5   -0.0012   -0.0007   -0.0030    0.0004    0.0001
           6   -0.0002    0.0001    0.0001    0.0010   -0.0004
           7   -0.0133   -0.0021   -0.0197   -0.0051    0.0045
           8   -0.0012    0.0012    0.0016    0.0011   -0.0005
           9   -0.0041   -0.0002   -0.0052   -0.0011    0.0011
          10    0.1806    0.0278    0.2572    0.0623   -0.0570
          11   -0.0016    0.0001   -0.0014   -0.0011    0.0007
          12    0.0516    0.0080    0.0738    0.0178   -0.0162
          13    0.0067   -0.0049   -0.0116   -0.0014    0.0021
          14   -0.0096    0.0034    0.0122    0.0009   -0.0023
          15   -0.0015   -0.0002    0.0009   -0.0001   -0.0002
          16   -0.0957    0.0439    0.1282    0.0114   -0.0239
          17    0.1274   -0.0577   -0.1730   -0.0155    0.0322
          18    0.0157   -0.0067   -0.0217   -0.0020    0.0041
          19    0.0131   -0.0162   -0.0029    0.0008   -0.0004
          20    0.0021   -0.0065    0.0030    0.0005   -0.0010
          21    0.0012   -0.0049    0.0016    0.0004   -0.0005
          22   -0.1020    0.1205    0.0352   -0.0035    0.0009
          23    0.0786   -0.0966   -0.0241    0.0033   -0.0013
          24    0.0521   -0.0628   -0.0157    0.0020   -0.0010
          25   -0.0486    0.0855   -0.0026   -0.0037    0.0055
          26   -0.1112    0.1912   -0.0030   -0.0082    0.0118
          27   -0.0634    0.1090   -0.0016   -0.0048    0.0066
          28    0.0002   -0.0006    0.0016   -0.0082    0.0037
[...]
 TRANSITION DIPOLE   0.0629         C  3 -- H  4         +14.5% ( 44.6%)      0.0%
 TRAVEL (Ang.)       0.4839         C  7 -- H  8          +9.1% ( 35.3%)      0.7%
 REDUCED MASS        0.2817         C  1 -- H  2          +7.0% ( 30.8%)      1.0%
 EFFECTIVE MASS      3.7890
 FORCE CONSTANT      0.1735

 VIBRATION         33   33A           ATOM PAIR      ENERGY CONTRIBUTION    RADIAL
 FREQUENCY          1035.82         C  7 -- H  9         +14.7% ( 50.8%)     15.2%
 TRANSITION DIPOLE   0.5259         C  7 -- H  8         +11.8% ( 45.4%)      8.2%
 TRAVEL (Ang.)       0.4996         C  3 -- H  4          +7.5% ( 36.1%)      0.4%
 REDUCED MASS        0.2608         C 22 -- H 23          +6.5% ( 33.7%)     20.6%
 EFFECTIVE MASS      4.2468
 FORCE CONSTANT      0.1648

 VIBRATION         34   34A           ATOM PAIR      ENERGY CONTRIBUTION    RADIAL
 FREQUENCY          1043.04         C 22 -- H 23         +18.7% ( 59.3%)     25.8%
 TRANSITION DIPOLE   0.3446         C 22 -- H 25         +11.2% ( 45.8%)      3.8%
 TRAVEL (Ang.)       0.4418         C 19 -- H 21         +10.3% ( 44.0%)      2.7%
 REDUCED MASS        0.3313         C 22 -- H 24          +9.3% ( 41.8%)      1.4%
 EFFECTIVE MASS      4.5437
 FORCE CONSTANT      0.2123

 VIBRATION         35   35A           ATOM PAIR      ENERGY CONTRIBUTION    RADIAL
 FREQUENCY          1066.43         C 10 -- H 13         +17.5% ( 50.3%)     16.4%
 TRANSITION DIPOLE   0.1879         C 22 -- H 24         +14.7% ( 46.2%)     14.7%
 TRAVEL (Ang.)       0.4766         C 10 -- H 11         +11.5% ( 40.8%)     10.0%
 REDUCED MASS        0.2784         C 19 -- H 21          +7.8% ( 33.6%)      0.5%
 EFFECTIVE MASS      3.7883
 FORCE CONSTANT      0.1865

 VIBRATION         36   36A           ATOM PAIR      ENERGY CONTRIBUTION    RADIAL
 FREQUENCY          1091.08         C 22 -- H 24         +17.4% ( 51.0%)     20.4%
 TRANSITION DIPOLE   0.2732         C 22 -- H 25         +15.7% ( 48.4%)      9.9%
 TRAVEL (Ang.)       0.3646         C 17 -- C 22          +9.4% ( 37.5%)      3.0%
 REDUCED MASS        0.4648         C  1 -- H  2          +9.1% ( 36.9%)      0.0%
 EFFECTIVE MASS      4.4507
 FORCE CONSTANT      0.3260

 VIBRATION         37   37A           ATOM PAIR      ENERGY CONTRIBUTION    RADIAL
 FREQUENCY          1135.01         C  7 -- H  8         +33.4% ( 58.5%)      0.6%
 TRANSITION DIPOLE   0.9628         C  7 -- H  9         +22.5% ( 47.9%)      0.3%
 TRAVEL (Ang.)       0.3897         C 19 -- H 21         +11.9% ( 34.9%)      0.0%
 REDUCED MASS        0.3912         C  7 -- C 19          +5.9% ( 24.6%)     13.4%
 EFFECTIVE MASS      3.0093
 FORCE CONSTANT      0.2969

 VIBRATION         38   38A           ATOM PAIR      ENERGY CONTRIBUTION    RADIAL
 FREQUENCY          1170.32         C  1 -- C 10         +20.1% ( 68.3%)     73.6%
 TRANSITION DIPOLE   0.4049         C  1 -- C  3         +14.6% ( 58.1%)      6.8%
 TRAVEL (Ang.)       0.2105         C  3 -- H  4         +11.3% ( 51.2%)     26.4%
 REDUCED MASS        1.3001         C  1 -- C 17          +8.4% ( 44.2%)      2.4%
 EFFECTIVE MASS      8.0363
 FORCE CONSTANT      1.0492

 VIBRATION         39   39A           ATOM PAIR      ENERGY CONTRIBUTION    RADIAL
 FREQUENCY          1204.98         C 16 -- C 19         +19.1% ( 67.4%)     93.6%
 TRANSITION DIPOLE   1.9776         C 19 -- H 21         +17.2% ( 64.1%)      4.7%
 TRAVEL (Ang.)       0.1705         C 15 -- C 16         +11.0% ( 51.1%)     85.4%
 REDUCED MASS        1.9242         O 14 -- C 16         +10.3% ( 49.6%)     49.3%
 EFFECTIVE MASS      9.9828
 FORCE CONSTANT      1.6461

 VIBRATION         40   40A           ATOM PAIR      ENERGY CONTRIBUTION    RADIAL
 FREQUENCY          1221.56         C 19 -- H 21         +20.5% ( 65.4%)      1.9%
 TRANSITION DIPOLE   0.8954         C 17 -- C 22         +10.5% ( 46.8%)     98.2%
 TRAVEL (Ang.)       0.2423         O 14 -- C 16          +9.2% ( 43.9%)     64.8%
 REDUCED MASS        0.9402         C 16 -- C 19          +8.7% ( 42.5%)      4.0%
 EFFECTIVE MASS      8.0573
 FORCE CONSTANT      0.8266

 VIBRATION         41   41A           ATOM PAIR      ENERGY CONTRIBUTION    RADIAL
 FREQUENCY          1264.93         C 10 -- H 13         +38.6% ( 55.2%)      0.5%
 TRANSITION DIPOLE   0.6290         C 10 -- H 11         +28.3% ( 47.2%)      4.7%
 TRAVEL (Ang.)       0.4084         C 10 -- H 12         +14.7% ( 34.0%)     11.4%
 REDUCED MASS        0.3195         C  1 -- C 10          +4.9% ( 19.7%)     48.6%
 EFFECTIVE MASS      1.6409
 FORCE CONSTANT      0.3012

 VIBRATION         42   42A           ATOM PAIR      ENERGY CONTRIBUTION    RADIAL
 FREQUENCY          1271.73         C 22 -- H 24         +29.5% ( 48.0%)      0.1%
 TRANSITION DIPOLE   0.4094         C 22 -- H 23         +18.3% ( 37.8%)      4.5%
 TRAVEL (Ang.)       0.5123         C 10 -- H 11         +15.1% ( 34.3%)      0.4%
 REDUCED MASS        0.2020         C 10 -- H 12         +10.8% ( 29.0%)      3.9%
 EFFECTIVE MASS      1.6218
 FORCE CONSTANT      0.1925

 VIBRATION         43   43A           ATOM PAIR      ENERGY CONTRIBUTION    RADIAL
 FREQUENCY          1274.26         C 22 -- H 25         +33.6% ( 52.0%)      0.4%
 TRANSITION DIPOLE   0.6503         C 22 -- H 24         +19.1% ( 39.2%)      4.8%
 TRAVEL (Ang.)       0.4866         C 22 -- H 23          +9.2% ( 27.2%)     17.1%
 REDUCED MASS        0.2235         C 10 -- H 12          +8.7% ( 26.4%)      4.0%
 EFFECTIVE MASS      1.7143
 FORCE CONSTANT      0.2138

 VIBRATION         44   44A           ATOM PAIR      ENERGY CONTRIBUTION    RADIAL
 FREQUENCY          1280.51         C  1 -- C 10         +16.6% ( 48.9%)     89.3%
 TRANSITION DIPOLE   0.4257         C  5 -- H  6         +14.1% ( 45.0%)      7.3%
 TRAVEL (Ang.)       0.3328         C  3 -- H  4         +12.8% ( 43.0%)      3.3%
 REDUCED MASS        0.4755         C  1 -- H  2         +11.5% ( 40.7%)     80.3%
 EFFECTIVE MASS      4.4028
 FORCE CONSTANT      0.4593

 VIBRATION         45   45A           ATOM PAIR      ENERGY CONTRIBUTION    RADIAL
 FREQUENCY          1285.16         C 22 -- H 23         +30.4% ( 48.1%)      0.1%
 TRANSITION DIPOLE   0.1952         C 10 -- H 12         +17.6% ( 36.6%)      0.9%
 TRAVEL (Ang.)       0.5110         C 22 -- H 25         +15.8% ( 34.7%)      5.9%
 REDUCED MASS        0.2009         C 10 -- H 11         +10.8% ( 28.6%)      3.2%
 EFFECTIVE MASS      1.5564
 FORCE CONSTANT      0.1955

 VIBRATION         46   46A           ATOM PAIR      ENERGY CONTRIBUTION    RADIAL
 FREQUENCY          1303.91         C  5 -- H  6         +22.2% ( 50.9%)      9.5%
 TRANSITION DIPOLE   0.1087         C  3 -- H  4         +18.4% ( 46.3%)      2.7%
 TRAVEL (Ang.)       0.4503         C  1 -- H  2         +17.0% ( 44.6%)      8.7%
 REDUCED MASS        0.2551         C  7 -- H  8         +10.4% ( 34.8%)     18.9%
 EFFECTIVE MASS      2.8507
 FORCE CONSTANT      0.2555

 VIBRATION         47   47A           ATOM PAIR      ENERGY CONTRIBUTION    RADIAL
 FREQUENCY          1314.64         C 17 -- C 22         +19.8% ( 66.2%)     52.3%
 TRANSITION DIPOLE   1.2687         C 15 -- C 17         +18.4% ( 63.9%)     95.2%
 TRAVEL (Ang.)       0.1370         C 17 -- C 19         +17.2% ( 61.8%)     20.2%
 REDUCED MASS        2.7345         C  1 -- C 17         +14.3% ( 56.4%)      0.7%
 EFFECTIVE MASS      8.6419
 FORCE CONSTANT      2.7844

 VIBRATION         48   48A           ATOM PAIR      ENERGY CONTRIBUTION    RADIAL
 FREQUENCY          1330.19         C  1 -- H  2         +38.7% ( 73.4%)      0.1%
 TRANSITION DIPOLE   0.1040         C  5 -- H  6         +16.9% ( 48.6%)      0.1%
 TRAVEL (Ang.)       0.3499         C  1 -- C 10          +7.2% ( 31.8%)     74.0%
 REDUCED MASS        0.4140         C  1 -- C 17          +6.9% ( 31.0%)      0.0%
 EFFECTIVE MASS      3.1170
 FORCE CONSTANT      0.4316

 VIBRATION         49   49A           ATOM PAIR      ENERGY CONTRIBUTION    RADIAL
 FREQUENCY          1365.18         C  7 -- H  8         +25.5% ( 50.3%)      0.1%
 TRANSITION DIPOLE   0.3746         C  3 -- H  4         +24.7% ( 49.6%)      2.9%
 TRAVEL (Ang.)       0.4126         C  7 -- H  9         +20.1% ( 44.7%)      1.2%
 REDUCED MASS        0.2901         C  3 -- C  5          +6.9% ( 26.3%)     75.9%
 EFFECTIVE MASS      2.1676
 FORCE CONSTANT      0.3185

 VIBRATION         50   50A           ATOM PAIR      ENERGY CONTRIBUTION    RADIAL
 FREQUENCY          1386.91         C 22 -- H 25         +27.4% ( 54.0%)      1.2%
 TRANSITION DIPOLE   0.6682         C 22 -- H 23         +26.0% ( 52.6%)      2.2%
 TRAVEL (Ang.)       0.3460         C 22 -- H 24         +24.3% ( 50.9%)      1.5%
 REDUCED MASS        0.4061         C 17 -- C 22          +7.6% ( 28.4%)     93.0%
 EFFECTIVE MASS      2.4077
 FORCE CONSTANT      0.4602

 VIBRATION         51   51A           ATOM PAIR      ENERGY CONTRIBUTION    RADIAL
 FREQUENCY          1391.33         C 10 -- H 12         +27.1% ( 54.5%)      1.8%
 TRANSITION DIPOLE   1.1841         C 10 -- H 11         +26.9% ( 54.4%)      1.7%
 TRAVEL (Ang.)       0.3405         C 10 -- H 13         +20.2% ( 47.1%)      1.5%
 REDUCED MASS        0.4180         C  1 -- C 10          +7.5% ( 28.6%)     97.9%
 EFFECTIVE MASS      2.5816
 FORCE CONSTANT      0.4767

 VIBRATION         52   52A           ATOM PAIR      ENERGY CONTRIBUTION    RADIAL
 FREQUENCY          1435.56         C  3 -- C  5         +16.0% ( 57.3%)     98.1%
 TRANSITION DIPOLE   0.3658         C  5 -- C  7         +14.6% ( 54.6%)     47.6%
 TRAVEL (Ang.)       0.1838         C  7 -- H  9         +11.9% ( 49.5%)      1.7%
 REDUCED MASS        1.3908         C  1 -- C  3         +10.5% ( 46.4%)     44.4%
 EFFECTIVE MASS      8.5549
 FORCE CONSTANT      1.6887

 VIBRATION         53   53A           ATOM PAIR      ENERGY CONTRIBUTION    RADIAL
 FREQUENCY          1511.09         C 17 -- C 19         +17.6% ( 68.1%)     88.4%
 TRANSITION DIPOLE   1.3883         C 17 -- C 22         +12.5% ( 57.5%)     87.5%
 TRAVEL (Ang.)       0.1398         C  1 -- C 17         +11.0% ( 54.0%)      5.0%
 REDUCED MASS        2.2843         C 15 -- C 17         +10.3% ( 52.2%)      1.9%
 EFFECTIVE MASS     10.8048         C  3 -- C  5         +10.0% ( 51.5%)     98.2%
 FORCE CONSTANT      3.0732

 VIBRATION         54   54A           ATOM PAIR      ENERGY CONTRIBUTION    RADIAL
 FREQUENCY          1655.72         C  5 -- C  7         +18.5% ( 65.3%)     92.0%
 TRANSITION DIPOLE   0.4673         C 17 -- C 19         +14.1% ( 56.9%)     98.1%
 TRAVEL (Ang.)       0.1219         C  3 -- C  5         +13.2% ( 55.0%)     83.0%
 REDUCED MASS        2.7406         C  5 -- H  6          +9.2% ( 46.1%)      0.7%
 EFFECTIVE MASS     11.7334
 FORCE CONSTANT      4.4266

 VIBRATION         55   55A           ATOM PAIR      ENERGY CONTRIBUTION    RADIAL
 FREQUENCY          1669.31         C  1 -- C  3         +29.3% ( 81.9%)     97.5%
 TRANSITION DIPOLE   1.0603         C  3 -- C  5         +12.6% ( 53.7%)     10.4%
 TRAVEL (Ang.)       0.1094         C  1 -- C 17         +10.3% ( 48.6%)      1.8%
 REDUCED MASS        3.3775         C  3 -- H  4         +10.1% ( 48.0%)      7.6%
 EFFECTIVE MASS     11.3619
 FORCE CONSTANT      5.5452

 VIBRATION         56   56A           ATOM PAIR      ENERGY CONTRIBUTION    RADIAL
 FREQUENCY          1882.44         C 15 -- O 18         +24.6% ( 75.2%)     99.7%
 TRANSITION DIPOLE   7.0783         C 16 -- O 20         +19.7% ( 67.3%)     99.7%
 TRAVEL (Ang.)       0.1017         C 15 -- C 16         +17.5% ( 63.4%)      0.9%
 REDUCED MASS        3.4634         C 15 -- C 17         +10.7% ( 49.5%)     57.1%
 EFFECTIVE MASS     13.4399         O 14 -- C 15         +10.4% ( 48.9%)     14.9%
 FORCE CONSTANT      7.2310

 VIBRATION         57   57A           ATOM PAIR      ENERGY CONTRIBUTION    RADIAL
 FREQUENCY          1947.89         C 16 -- O 20         +23.0% ( 72.7%)    100.0%
 TRANSITION DIPOLE   3.0824         C 15 -- C 16         +20.2% ( 68.1%)     99.9%
 TRAVEL (Ang.)       0.0991         C 15 -- O 18         +18.2% ( 64.6%)    100.0%
 REDUCED MASS        3.5237         C 16 -- C 19         +10.7% ( 49.6%)     57.3%
 EFFECTIVE MASS     13.2470         O 14 -- C 16         +10.5% ( 49.1%)     26.0%
 FORCE CONSTANT      7.8772

 VIBRATION         58   58A           ATOM PAIR      ENERGY CONTRIBUTION    RADIAL
 FREQUENCY          2647.47         C 10 -- H 11         +63.2% ( 82.0%)     99.2%
 TRANSITION DIPOLE   0.6787         C 10 -- H 13         +32.6% ( 58.9%)     94.9%
 TRAVEL (Ang.)       0.2212         C 10 -- H 12          +2.8% ( 17.4%)     40.2%
 REDUCED MASS        0.5206         C  1 -- C 10          +0.9% (  9.6%)      0.0%
 EFFECTIVE MASS      1.4400
 FORCE CONSTANT      2.1501

 VIBRATION         59   59A           ATOM PAIR      ENERGY CONTRIBUTION    RADIAL
 FREQUENCY          2656.14         C 22 -- H 24         +64.6% ( 82.9%)     99.4%
 TRANSITION DIPOLE   0.6585         C 22 -- H 23         +28.0% ( 54.5%)     93.2%
 TRAVEL (Ang.)       0.2223         C 22 -- H 25          +6.4% ( 26.1%)     65.3%
 REDUCED MASS        0.5135         C 17 -- C 22          +0.8% (  9.5%)      0.1%
 EFFECTIVE MASS      1.4347
 FORCE CONSTANT      2.1345

 VIBRATION         60   60A           ATOM PAIR      ENERGY CONTRIBUTION    RADIAL
 FREQUENCY          2666.30         C 10 -- H 12         +53.7% ( 75.6%)     99.0%
 TRANSITION DIPOLE   0.5141         C 10 -- H 13         +33.0% ( 59.3%)     94.9%
 TRAVEL (Ang.)       0.2460         C 10 -- H 11          +7.4% ( 28.0%)     69.6%
 REDUCED MASS        0.4180         C  1 -- H  2          +4.0% ( 20.7%)     99.8%
 EFFECTIVE MASS      1.4367
 FORCE CONSTANT      1.7510

 VIBRATION         61   61A           ATOM PAIR      ENERGY CONTRIBUTION    RADIAL
 FREQUENCY          2668.16         C 22 -- H 25         +57.3% ( 78.0%)     99.1%
 TRANSITION DIPOLE   0.6033         C 22 -- H 23         +37.1% ( 62.8%)     95.9%
 TRAVEL (Ang.)       0.2287         C 22 -- H 24          +3.8% ( 20.2%)     48.8%
 REDUCED MASS        0.4830         C 17 -- C 22          +0.9% (  9.7%)      0.0%
 EFFECTIVE MASS      1.4475
 FORCE CONSTANT      2.0259

 VIBRATION         62   62A           ATOM PAIR      ENERGY CONTRIBUTION    RADIAL
 FREQUENCY          2683.43         C  7 -- H  8         +63.3% ( 82.3%)     99.3%
 TRANSITION DIPOLE   0.4391         C  7 -- H  9         +31.2% ( 57.7%)     96.2%
 TRAVEL (Ang.)       0.2188         C  5 -- H  6          +3.3% ( 18.9%)     99.9%
 REDUCED MASS        0.5251         C  5 -- C  7          +1.0% ( 10.5%)      3.1%
 EFFECTIVE MASS      1.4756
 FORCE CONSTANT      2.2278

 VIBRATION         63   63A           ATOM PAIR      ENERGY CONTRIBUTION    RADIAL
 FREQUENCY          2709.03         C  1 -- H  2         +86.1% ( 94.2%)     99.9%
 TRANSITION DIPOLE   0.5822         C  3 -- H  4          +5.7% ( 24.3%)     99.9%
 TRAVEL (Ang.)       0.1837         C 10 -- H 11          +2.3% ( 15.4%)     94.0%
 REDUCED MASS        0.7377         C 10 -- H 13          +1.9% ( 14.0%)     91.2%
 EFFECTIVE MASS      1.3730
 FORCE CONSTANT      3.1896

 VIBRATION         64   64A           ATOM PAIR      ENERGY CONTRIBUTION    RADIAL
 FREQUENCY          2749.10         C  5 -- H  6         +39.9% ( 63.6%)     99.9%
 TRANSITION DIPOLE   0.6589         C  7 -- H  9         +26.6% ( 51.9%)     99.2%
 TRAVEL (Ang.)       0.3088         C 19 -- H 21         +14.0% ( 37.7%)    100.0%
 REDUCED MASS        0.2572         C  3 -- H  4         +11.2% ( 33.7%)     99.9%
 EFFECTIVE MASS      1.3542
 FORCE CONSTANT      1.1452

 VIBRATION         65   65A           ATOM PAIR      ENERGY CONTRIBUTION    RADIAL
 FREQUENCY          2752.56         C  3 -- H  4         +25.9% ( 51.2%)    100.0%
 TRANSITION DIPOLE   0.4599         C 19 -- H 21         +24.0% ( 49.3%)    100.0%
 TRAVEL (Ang.)       0.3583         C  5 -- H  6         +18.8% ( 43.6%)    100.0%
 REDUCED MASS        0.1908         C  7 -- H  8         +13.5% ( 36.9%)     95.0%
 EFFECTIVE MASS      1.3593         C  7 -- H  9         +13.2% ( 36.6%)     94.5%
 FORCE CONSTANT      0.8518

 VIBRATION         66   66A           ATOM PAIR      ENERGY CONTRIBUTION    RADIAL
 FREQUENCY          2757.49         C 19 -- H 21         +54.4% ( 74.1%)     99.9%
 TRANSITION DIPOLE   0.9562         C  7 -- H  9         +26.4% ( 51.6%)     97.7%
 TRAVEL (Ang.)       0.2562         C  7 -- H  8         +12.7% ( 35.8%)     91.5%
 REDUCED MASS        0.3726         C  5 -- H  6          +2.6% ( 16.3%)     99.2%
 EFFECTIVE MASS      1.3513
 FORCE CONSTANT      1.6694

 VIBRATION         67   67A           ATOM PAIR      ENERGY CONTRIBUTION    RADIAL
 FREQUENCY          2761.98         C  3 -- H  4         +49.3% ( 70.5%)    100.0%
 TRANSITION DIPOLE   1.1330         C  5 -- H  6         +32.2% ( 57.0%)     99.9%
 TRAVEL (Ang.)       0.2692         C 19 -- H 21          +4.8% ( 21.9%)    100.0%
 REDUCED MASS        0.3369         C 10 -- H 13          +2.3% ( 15.3%)     96.0%
 EFFECTIVE MASS      1.3757
 FORCE CONSTANT      1.5140

 VIBRATION         68   68A           ATOM PAIR      ENERGY CONTRIBUTION    RADIAL
 FREQUENCY          2773.07         C 10 -- H 12         +32.8% ( 55.1%)     96.9%
 TRANSITION DIPOLE   0.4592         C 10 -- H 13         +23.3% ( 46.5%)     94.6%
 TRAVEL (Ang.)       0.3431         C 10 -- H 11         +18.5% ( 41.4%)     93.1%
 REDUCED MASS        0.2065         C 22 -- H 23          +6.7% ( 24.8%)     96.0%
 EFFECTIVE MASS      1.1686
 FORCE CONSTANT      0.9358

 VIBRATION         69   69A           ATOM PAIR      ENERGY CONTRIBUTION    RADIAL
 FREQUENCY          2773.89         C 22 -- H 25         +27.9% ( 50.9%)     95.6%
 TRANSITION DIPOLE   0.7040         C 22 -- H 23         +25.8% ( 49.0%)     95.3%
 TRAVEL (Ang.)       0.3408         C 22 -- H 24         +23.7% ( 46.9%)     94.7%
 REDUCED MASS        0.2093         C 10 -- H 12          +6.7% ( 25.0%)     96.7%
 EFFECTIVE MASS      1.1664
 FORCE CONSTANT      0.9489

           FORCE CONSTANT IN CARTESIAN COORDINATES (Millidynes/A)

    ATOM   CHEMICAL       X               Y               Z
   NUMBER   SYMBOL  FORCE CONSTANT  FORCE CONSTANT  FORCE CONSTANT

      1       C        8.292869       11.077718        2.024488
      2       H        4.110170        0.925800        0.570049
      3       C        8.794268       11.007317        3.582056
      4       H        3.963837        0.933575        0.710622
      5       C       10.267622        9.047119        4.131407
      6       H        2.052824        2.986959        0.526751
      7       C       10.713872        5.096373        2.938453
      8       H        2.652303        1.673372        1.109157
      9       H        1.253243        2.893195        1.279718
     10       C        6.694297        7.280660        6.073368
     11       H        1.204884        2.951362        1.202488
     12       H        3.981909        0.755408        0.689294
     13       H        0.605902        0.735792        3.949224
     14       O        6.078427        6.104743        0.997557
     15       C        5.784065       16.811916        3.202753
     16       C       13.438846        8.892136        3.868314
     17       C       10.794485        9.391170        1.924955
     18       O        1.026111       14.080169        1.033962
     19       C        7.728482        8.213382        3.392951
     20       O        9.150181        5.386708        1.627067
     21       H        1.396711        2.665328        1.478772
     22       C        7.629692        6.433436        6.070940
     23       H        1.122236        2.916636        1.367270
     24       H        0.813296        0.661578        3.851631
     25       H        2.214971        2.423831        0.762132

 **********************
 *                    *
 * JOB ENDED NORMALLY *
 *                    *
 **********************



 TOTAL JOB TIME:             1.64 SECONDS

 == MOPAC DONE ==
