 *******************************************************************************
 ** Site#: 36969        For non-commercial use only    Version 21.051W 64BITS **
 *******************************************************************************
 ** Cite this program as: MOPAC2016, Version: 21.051W, James J. P. Stewart,   **
 ** Stewart Computational Chemistry, web: HTTP://OpenMOPAC.net. Days left: 295**
 *******************************************************************************
 **                                                                           **
 **                                MOPAC2016                                  **
 **                                                                           **
 *******************************************************************************

                              PM7 CALCULATION RESULTS

 *******************************************************************************
 *  CALCULATION DONE:                                Sat May  1 14:35:27 2021  *
 *  PM7        - The PM7 Hamiltonian to be used
 *  FORCE      - FORCE CALCULATION SPECIFIED
 *  T=         - A TIME OF 172800.0 SECONDS REQUESTED
 *  DUMP=N     - RESTART FILE WRITTEN EVERY 7200.0 SECONDS REQUESTED
 *******************************************************************************
PM7 FORCE
 TS_7_FREQ

   ATOM   CHEMICAL          X               Y               Z
  NUMBER   SYMBOL      (ANGSTROMS)     (ANGSTROMS)     (ANGSTROMS)
 
     1       C         -0.80924856  *  -0.23056996  *   1.65507554  *
     2       H          0.28532144  *  -0.21110301  *   1.67621185  *
     3       C         -1.54265008  *   0.93745228  *   1.63079333  *
     4       H         -2.59737861  *   0.92595897  *   1.90813594  *
     5       C         -1.00544585  *   2.12841759  *   1.11944642  *
     6       H         -1.66879176  *   2.98493290  *   0.99308098  *
     7       C          0.28986768  *   2.17944890  *   0.63615853  *
     8       H          1.08449465  *   1.58362072  *   1.08009941  *
     9       H          0.67293189  *   3.06626401  *   0.14422213  *
    10       C         -1.41919114  *  -1.50962159  *   2.10643249  *
    11       H         -0.91918636  *  -2.39277361  *   1.67149657  *
    12       H         -1.32870708  *  -1.60951157  *   3.20163204  *
    13       H         -2.48608735  *  -1.60107857  *   1.86536295  *
    14       O          1.74554445  *  -0.71308550  *  -0.76399757  *
    15       C          0.50970657  *  -1.32854084  *  -0.48930391  *
    16       C          1.53157660  *   0.62525402  *  -1.11768324  *
    17       C         -0.55007725  *  -0.29109274  *  -0.61479576  *
    18       O          0.48977816  *  -2.49096883  *  -0.22492224  *
    19       C          0.07231346  *   0.90859844  *  -0.97366271  *
    20       O          2.45367897  *   1.30101781  *  -1.45381355  *
    21       H         -0.39012736  *   1.70087840  *  -1.54737562  *
    22       C         -1.93177386  *  -0.67896257  *  -0.96449947  *
    23       H         -2.01648167  *  -0.92439104  *  -2.03854510  *
    24       H         -2.27898101  *  -1.56649797  *  -0.41295358  *
    25       H         -2.65277233  *   0.12575820  *  -0.76040763  *
 


          CARTESIAN COORDINATES 

    NO.       ATOM           X           Y           Z

     1         C         -0.8092     -0.2306      1.6551
     2         H          0.2853     -0.2111      1.6762
     3         C         -1.5427      0.9375      1.6308
     4         H         -2.5974      0.9260      1.9081
     5         C         -1.0054      2.1284      1.1194
     6         H         -1.6688      2.9849      0.9931
     7         C          0.2899      2.1794      0.6362
     8         H          1.0845      1.5836      1.0801
     9         H          0.6729      3.0663      0.1442
    10         C         -1.4192     -1.5096      2.1064
    11         H         -0.9192     -2.3928      1.6715
    12         H         -1.3287     -1.6095      3.2016
    13         H         -2.4861     -1.6011      1.8654
    14         O          1.7455     -0.7131     -0.7640
    15         C          0.5097     -1.3285     -0.4893
    16         C          1.5316      0.6253     -1.1177
    17         C         -0.5501     -0.2911     -0.6148
    18         O          0.4898     -2.4910     -0.2249
    19         C          0.0723      0.9086     -0.9737
    20         O          2.4537      1.3010     -1.4538
    21         H         -0.3901      1.7009     -1.5474
    22         C         -1.9318     -0.6790     -0.9645
    23         H         -2.0165     -0.9244     -2.0385
    24         H         -2.2790     -1.5665     -0.4130
    25         H         -2.6528      0.1258     -0.7604

 General Reference for PM7:
 "Optimization of Parameters for Semiempirical Methods VI: More Modifications to the 
 NDDO Approximations and Re-optimization of Parameters", J. J. P. Stewart, J. Mol. Mod., 1:32, 19 (2013)
 https://link.springer.com/article/10.1007/s00894-012-1667-x

           Empirical Formula: C10 H12 O3  =    25 atoms



      MOLECULAR POINT GROUP   :   C1  


      RHF CALCULATION, NO. OF DOUBLY OCCUPIED LEVELS = 35



          HEAT OF FORMATION =     -59.732761 KCALS/MOLE


          CARTESIAN COORDINATE DERIVATIVES

   NUMBER  ATOM         X            Y            Z

     1       C      0.011428    -0.038345     0.045918
     2       H      0.239653     0.049330     0.042174
     3       C     -0.320624    -0.712786     0.350831
     4       H      0.059534     0.615404    -0.048120
     5       C     -0.230110     0.762813    -0.267494
     6       H     -0.046407    -0.258823     0.412430
     7       C     -0.115587     0.204532    -0.818504
     8       H      0.264123    -0.021232     0.066338
     9       H      0.097919    -0.678127     0.058250
    10       C      0.099404     0.300151     0.049259
    11       H     -0.479989    -0.074856     0.212835
    12       H      0.043273     0.446851     0.076483
    13       H      0.075728    -0.946835    -0.110644
    14       O      0.080729     0.116324    -0.110214
    15       C      0.166380     0.399374     0.140121
    16       C      0.192251    -0.320960    -0.178484
    17       C      0.071540     0.009900    -0.068421
    18       O      0.085039    -0.097142    -0.165867
    19       C     -0.374771     0.205533     0.482710
    20       O      0.398324    -0.240448    -0.086343
    21       H     -0.180813     0.890251     0.596462
    22       C      0.176274    -0.438102    -0.553315
    23       H     -0.109095    -0.250151    -0.685783
    24       H     -0.493577     0.753912     0.438094
    25       H      0.289370    -0.676576     0.121281
 


          GRADIENT NORM =   3.13485

          MOLECULAR WEIGHT =  180.20



          ROTATIONAL CONSTANTS IN CM(-1)

          A =    0.03543617   B =    0.02797495   C =    0.01980564



           PRINCIPAL MOMENTS OF INERTIA IN UNITS OF 10**(-40)*GRAM-CM**2

          A =      789.9492   B =     1000.6371   C =     1413.3735


          ORIENTATION OF MOLECULE IN FORCE CALCULATION

    NO.       ATOM         X         Y         Z

     1          C      -0.7948   -0.2559    1.6427
     2          H       0.3001   -0.2559    1.6427
     3          C      -1.5077    0.9250    1.6427
     4          H      -2.5569    0.9296    1.9404
     5          C      -0.9594    2.1109    1.1312
     6          H      -1.6097    2.9800    1.0251
     7          C       0.3271    2.1434    0.6233
     8          H       1.1194    1.5297    1.0466
     9          H       0.7163    3.0277    0.1316
    10          C      -1.4186   -1.5280    2.0949
    11          H      -0.9429   -2.4159    1.6427
    12          H      -1.3088   -1.6392    3.1872
    13          H      -2.4914   -1.5985    1.8738
    14          O       1.7038   -0.7618   -0.8297
    15          C       0.4628   -1.3578   -0.5363
    16          C       1.5069    0.5832   -1.1676
    17          C      -0.5806   -0.3007   -0.6322
    18          O       0.4273   -2.5220   -0.2815
    19          C       0.0559    0.8909   -0.9928
    20          O       2.4342    1.2456   -1.5158
    21          H      -0.4033    1.6963   -1.5506
    22          C      -1.9755   -0.6611   -0.9583
    23          H      -2.0853   -0.8954   -2.0325
    24          H      -2.3277   -1.5473   -0.4077
    25          H      -2.6780    0.1543   -0.7333


    FIRST DERIVATIVES WILL BE USED IN THE CALCULATION OF SECOND DERIVATIVES

          ESTIMATED TIME TO COMPLETE CALCULATION =        2.34 SECONDS

    FOR POINT-GROUP C1   THERE ARE   1 UNIQUE SYMMETRY FUNCTIONS.

 STEP:   1 TIME =     0.02 SECS, INTEGRAL =      0.02 TIME LEFT: 172799.96
 STEP:   2 TIME =     0.02 SECS, INTEGRAL =      0.04 TIME LEFT: 172799.95
 STEP:   3 TIME =     0.02 SECS, INTEGRAL =      0.06 TIME LEFT: 172799.93
 STEP:   4 TIME =     0.02 SECS, INTEGRAL =      0.07 TIME LEFT: 172799.91
 STEP:   5 TIME =     0.02 SECS, INTEGRAL =      0.09 TIME LEFT: 172799.89
 STEP:   6 TIME =     0.02 SECS, INTEGRAL =      0.11 TIME LEFT: 172799.88
 STEP:   7 TIME =     0.02 SECS, INTEGRAL =      0.12 TIME LEFT: 172799.86
 STEP:   8 TIME =     0.02 SECS, INTEGRAL =      0.14 TIME LEFT: 172799.84
 STEP:   9 TIME =     0.02 SECS, INTEGRAL =      0.16 TIME LEFT: 172799.82
 STEP:  10 TIME =     0.02 SECS, INTEGRAL =      0.18 TIME LEFT: 172799.81
 STEP:  11 TIME =     0.01 SECS, INTEGRAL =      0.19 TIME LEFT: 172799.80
 STEP:  12 TIME =     0.03 SECS, INTEGRAL =      0.22 TIME LEFT: 172799.77
 STEP:  13 TIME =     0.05 SECS, INTEGRAL =      0.27 TIME LEFT: 172799.72
 STEP:  14 TIME =     0.04 SECS, INTEGRAL =      0.31 TIME LEFT: 172799.68
 STEP:  15 TIME =     0.04 SECS, INTEGRAL =      0.35 TIME LEFT: 172799.64
 STEP:  16 TIME =     0.03 SECS, INTEGRAL =      0.38 TIME LEFT: 172799.61
 STEP:  17 TIME =     0.02 SECS, INTEGRAL =      0.40 TIME LEFT: 172799.59
 STEP:  18 TIME =     0.02 SECS, INTEGRAL =      0.42 TIME LEFT: 172799.56
 STEP:  19 TIME =     0.04 SECS, INTEGRAL =      0.46 TIME LEFT: 172799.53
 STEP:  20 TIME =     0.03 SECS, INTEGRAL =      0.48 TIME LEFT: 172799.50
 STEP:  21 TIME =     0.04 SECS, INTEGRAL =      0.52 TIME LEFT: 172799.46
 STEP:  22 TIME =     0.03 SECS, INTEGRAL =      0.55 TIME LEFT: 172799.43
 STEP:  23 TIME =     0.02 SECS, INTEGRAL =      0.57 TIME LEFT: 172799.41
 STEP:  24 TIME =     0.02 SECS, INTEGRAL =      0.59 TIME LEFT: 172799.39
 STEP:  25 TIME =     0.02 SECS, INTEGRAL =      0.61 TIME LEFT: 172799.38
 STEP:  26 TIME =     0.03 SECS, INTEGRAL =      0.63 TIME LEFT: 172799.35
 STEP:  27 TIME =     0.02 SECS, INTEGRAL =      0.65 TIME LEFT: 172799.33
 STEP:  28 TIME =     0.03 SECS, INTEGRAL =      0.68 TIME LEFT: 172799.30
 STEP:  29 TIME =     0.02 SECS, INTEGRAL =      0.70 TIME LEFT: 172799.29
 STEP:  30 TIME =     0.02 SECS, INTEGRAL =      0.71 TIME LEFT: 172799.27
 STEP:  31 TIME =     0.03 SECS, INTEGRAL =      0.74 TIME LEFT: 172799.24
 STEP:  32 TIME =     0.02 SECS, INTEGRAL =      0.76 TIME LEFT: 172799.22
 STEP:  33 TIME =     0.02 SECS, INTEGRAL =      0.78 TIME LEFT: 172799.20
 STEP:  34 TIME =     0.02 SECS, INTEGRAL =      0.80 TIME LEFT: 172799.18
 STEP:  35 TIME =     0.02 SECS, INTEGRAL =      0.82 TIME LEFT: 172799.16
 STEP:  36 TIME =     0.03 SECS, INTEGRAL =      0.86 TIME LEFT: 172799.13
 STEP:  37 TIME =     0.06 SECS, INTEGRAL =      0.92 TIME LEFT: 172799.07
 STEP:  38 TIME =     0.03 SECS, INTEGRAL =      0.95 TIME LEFT: 172799.04
 STEP:  39 TIME =     0.04 SECS, INTEGRAL =      0.98 TIME LEFT: 172799.00
 STEP:  40 TIME =     0.02 SECS, INTEGRAL =      1.00 TIME LEFT: 172798.98
 STEP:  41 TIME =     0.02 SECS, INTEGRAL =      1.02 TIME LEFT: 172798.96
 STEP:  42 TIME =     0.02 SECS, INTEGRAL =      1.04 TIME LEFT: 172798.95
 STEP:  43 TIME =     0.02 SECS, INTEGRAL =      1.06 TIME LEFT: 172798.93
 STEP:  44 TIME =     0.02 SECS, INTEGRAL =      1.08 TIME LEFT: 172798.90
 STEP:  45 TIME =     0.02 SECS, INTEGRAL =      1.10 TIME LEFT: 172798.88
 STEP:  46 TIME =     0.02 SECS, INTEGRAL =      1.12 TIME LEFT: 172798.86
 STEP:  47 TIME =     0.02 SECS, INTEGRAL =      1.14 TIME LEFT: 172798.84
 STEP:  48 TIME =     0.03 SECS, INTEGRAL =      1.17 TIME LEFT: 172798.81
 STEP:  49 TIME =     0.02 SECS, INTEGRAL =      1.19 TIME LEFT: 172798.79
 STEP:  50 TIME =     0.02 SECS, INTEGRAL =      1.21 TIME LEFT: 172798.77
 STEP:  51 TIME =     0.02 SECS, INTEGRAL =      1.23 TIME LEFT: 172798.75
 STEP:  52 TIME =     0.02 SECS, INTEGRAL =      1.26 TIME LEFT: 172798.73
 STEP:  53 TIME =     0.02 SECS, INTEGRAL =      1.28 TIME LEFT: 172798.70
 STEP:  54 TIME =     0.03 SECS, INTEGRAL =      1.31 TIME LEFT: 172798.68
 STEP:  55 TIME =     0.03 SECS, INTEGRAL =      1.34 TIME LEFT: 172798.65
 STEP:  56 TIME =     0.04 SECS, INTEGRAL =      1.38 TIME LEFT: 172798.61
 STEP:  57 TIME =     0.03 SECS, INTEGRAL =      1.41 TIME LEFT: 172798.58
 STEP:  58 TIME =     0.02 SECS, INTEGRAL =      1.43 TIME LEFT: 172798.55
 STEP:  59 TIME =     0.04 SECS, INTEGRAL =      1.46 TIME LEFT: 172798.52
 STEP:  60 TIME =     0.02 SECS, INTEGRAL =      1.48 TIME LEFT: 172798.50
 STEP:  61 TIME =     0.02 SECS, INTEGRAL =      1.51 TIME LEFT: 172798.48
 STEP:  62 TIME =     0.02 SECS, INTEGRAL =      1.53 TIME LEFT: 172798.45
 STEP:  63 TIME =     0.04 SECS, INTEGRAL =      1.57 TIME LEFT: 172798.42
 STEP:  64 TIME =     0.02 SECS, INTEGRAL =      1.59 TIME LEFT: 172798.40
 STEP:  65 TIME =     0.02 SECS, INTEGRAL =      1.61 TIME LEFT: 172798.38
 STEP:  66 TIME =     0.02 SECS, INTEGRAL =      1.63 TIME LEFT: 172798.36
 STEP:  67 TIME =     0.03 SECS, INTEGRAL =      1.66 TIME LEFT: 172798.33
 STEP:  68 TIME =     0.03 SECS, INTEGRAL =      1.68 TIME LEFT: 172798.30
 STEP:  69 TIME =     0.03 SECS, INTEGRAL =      1.71 TIME LEFT: 172798.27
 STEP:  70 TIME =     0.02 SECS, INTEGRAL =      1.73 TIME LEFT: 172798.26
 STEP:  71 TIME =     0.02 SECS, INTEGRAL =      1.75 TIME LEFT: 172798.24
 STEP:  72 TIME =     0.02 SECS, INTEGRAL =      1.76 TIME LEFT: 172798.22
 STEP:  73 TIME =     0.01 SECS, INTEGRAL =      1.77 TIME LEFT: 172798.21
 STEP:  74 TIME =     0.02 SECS, INTEGRAL =      1.79 TIME LEFT: 172798.20
 STEP:  75 TIME =     0.02 SECS, INTEGRAL =      1.80 TIME LEFT: 172798.18

(To convert to Hartree/Bohr^2, multiply by (10^(-21) x N x a0^2)/(4.184 x 627.51) =  0.0642)


           FORCE MATRIX IN MILLIDYNES/ANGSTROM


                  C  1       H  2       C  3       H  4       C  5       H  6
 ------------------------------------------------------------------------------
     C    1  14.374397
     H    2   3.359565   4.247657
     C    3   6.944529   0.763948  15.084095
     H    4   0.782732   0.086439   3.451982   4.384023
     C    5   2.132481   0.169669   5.519628   0.767739  15.007446
     H    6   0.103194   0.005796   0.762130   0.032201   3.454442   4.365612
     C    7   1.331872   0.147605   2.315341   0.091589   6.844014   0.772217
     H    8   0.150026   0.028340   0.200306   0.005710   0.792829   0.079974
     H    9   0.025852   0.005490   0.097963   0.007720   0.741537   0.043106
     C   10   3.908115   0.679329   0.886742   0.052216   0.129631   0.013069
     H   11   0.726205   0.019502   0.050255   0.004688   0.025610   0.002769
     H   12   0.744621   0.015703   0.024209   0.010433   0.015877   0.001901
     H   13   0.713517   0.042891   0.020937   0.018308   0.011133   0.001831
     O   14   0.059538   0.024011   0.056845   0.005187   0.078373   0.010954
     C   15   0.363841   0.121543   0.267315   0.010134   0.282239   0.036678
     C   16   0.192135   0.037042   0.179374   0.019198   0.196567   0.014562
     C   17   1.677365   0.351319   1.736509   0.035150   1.601451   0.057868
     O   18   0.090816   0.017136   0.086655   0.006339   0.076600   0.009449
     C   19   1.484523   0.157211   1.713578   0.034424   2.158379   0.076430
     O   20   0.038581   0.010865   0.040198   0.006071   0.047203   0.007929
     H   21   0.128850   0.011908   0.151071   0.004353   0.170440   0.006712
     C   22   0.278973   0.014327   0.141628   0.012499   0.130091   0.009957
     H   23   0.024406   0.001045   0.014907   0.001583   0.014380   0.001814
     H   24   0.026030   0.003110   0.017743   0.004481   0.014335   0.002265
     H   25   0.014195   0.002615   0.017844   0.009716   0.015004   0.004989


                  C  7       H  8       H  9       C 10       H 11       H 12
 ------------------------------------------------------------------------------
     C    7  13.004705
     H    8   3.432863   4.195060
     H    9   3.519093   0.445455   4.265420
     C   10   0.067180   0.012597   0.009118  11.637978
     H   11   0.025606   0.003825   0.001987   3.340657   4.140432
     H   12   0.007232   0.002642   0.000993   3.335872   0.455462   4.157497
     H   13   0.011449   0.002113   0.001612   3.415548   0.451673   0.456945
     O   14   0.141457   0.027573   0.019666   0.051762   0.032760   0.009171
     C   15   0.414988   0.051283   0.027056   0.137691   0.111973   0.021694
     C   16   0.490111   0.128708   0.063058   0.049489   0.026546   0.010567
     C   17   1.820464   0.177408   0.045293   0.125636   0.027753   0.013929
     O   18   0.094156   0.016742   0.006780   0.096633   0.057237   0.011557
     C   19   2.392351   0.485590   0.244390   0.050971   0.022050   0.005899
     O   20   0.040441   0.022287   0.027788   0.020001   0.008844   0.004586
     H   21   0.507239   0.011046   0.028891   0.005872   0.002746   0.001124
     C   22   0.145071   0.015398   0.006651   0.065877   0.013560   0.004620
     H   23   0.016035   0.001333   0.000989   0.007308   0.003053   0.000452
     H   24   0.020545   0.002566   0.001984   0.018139   0.016616   0.002671
     H   25   0.018894   0.002661   0.001951   0.011634   0.003519   0.001746


                  H 13       O 14       C 15       C 16       C 17       O 18
 ------------------------------------------------------------------------------
     H   13   4.212588
     O   14   0.009127   8.979774
     C   15   0.021540   3.319084  18.556056
     C   16   0.009168   3.468420   2.374100  18.739607
     C   17   0.011526   1.189345   3.049213   1.338203  14.765074
     O   18   0.009887   1.846011  12.707730   0.425041   1.083287  14.752780
     C   19   0.011815   1.225509   1.455330   3.096405   6.003008   0.133497
     O   20   0.004233   1.853843   0.429693  12.800612   0.108818   0.127895
     H   21   0.001888   0.058500   0.100726   0.589571   0.730415   0.018680
     C   22   0.010110   0.109147   0.565850   0.123216   4.150405   0.058375
     H   23   0.002755   0.018374   0.040945   0.022041   0.747172   0.014859
     H   24   0.023754   0.024477   0.062440   0.025527   0.715437   0.026742
     H   25   0.006395   0.015137   0.037990   0.021135   0.739662   0.007622


                  C 19       O 20       H 21       C 22       H 23       H 24
 ------------------------------------------------------------------------------
     C   19  12.937105
     O   20   1.050000  14.836873
     H   21   3.494565   0.035853   4.323190
     C   22   0.746773   0.031212   0.044296  11.697159
     H   23   0.029296   0.007722   0.010066   3.325787   4.147717
     H   24   0.051819   0.005098   0.003947   3.375224   0.454735   4.191263
     H   25   0.027972   0.005943   0.011573   3.394046   0.455288   0.454985


                  H 25
 ------------------
     H   25   4.210410


          HEAT OF FORMATION =     -59.732761 KCALS/MOLE

          ZERO POINT ENERGY     117.732 KCAL/MOL

         NOTE: SYSTEM IS NOT A GROUND STATE, THEREFORE ZERO POINT
         ENERGY IS NOT MEANINGFULL. ZERO POINT ENERGY PRINTED
         DOES NOT INCLUDE THE  1 IMAGINARY FREQUENCIES


           NORMAL COORDINATE ANALYSIS (Total motion = 1 Angstrom)


   Root No.       1         2         3         4         5         6         7         8

                 1 A       2 A       3 A       4 A       5 A       6 A       7 A       8 A   

                -736.0      60.5     119.3     136.4     139.7     149.1     163.0     176.1
  
           1    0.0150    0.0284   -0.0080   -0.0138    0.0014    0.0200    0.0019   -0.0083
           2   -0.0167    0.0083    0.0222   -0.0007    0.0044   -0.0113   -0.0026   -0.0175
           3   -0.0738   -0.0035   -0.0015    0.0123   -0.0073   -0.0215   -0.0012    0.0322
           4    0.0168    0.0284   -0.0083   -0.0139    0.0021    0.0206    0.0016   -0.0092
           5    0.0113    0.0318    0.0075   -0.0014   -0.0002   -0.0171   -0.0054   -0.0343
           6    0.0519   -0.0172   -0.0036    0.0079   -0.0051   -0.0233   -0.0023    0.0043
           7   -0.0020    0.0022    0.0062   -0.0150    0.0085    0.0298    0.0039    0.0032
           8    0.0281   -0.0073    0.0314   -0.0019    0.0093   -0.0048   -0.0016   -0.0122
           9   -0.0091   -0.0042   -0.0011   -0.0006   -0.0011   -0.0058    0.0051    0.0035
          10    0.0099    0.0050    0.0074   -0.0164    0.0092    0.0323    0.0064    0.0056
          11   -0.0059   -0.0288    0.0452    0.0003    0.0150    0.0002   -0.0014    0.0057
          12    0.0341    0.0061    0.0027   -0.0056    0.0011    0.0032    0.0152    0.0122
          13   -0.0241   -0.0291    0.0187   -0.0120    0.0144    0.0325   -0.0046    0.0101
          14   -0.0164    0.0011    0.0229   -0.0053    0.0075   -0.0048   -0.0015   -0.0313
          15    0.0108   -0.0180   -0.0072   -0.0050    0.0015   -0.0013   -0.0037   -0.0306
          16    0.0273   -0.0507    0.0285   -0.0106    0.0195    0.0375   -0.0102    0.0188
          17    0.0248   -0.0159    0.0294   -0.0053    0.0116    0.0008   -0.0052   -0.0267
          18    0.0441   -0.0242   -0.0140   -0.0128    0.0047    0.0129   -0.0020   -0.0467
          19   -0.0022   -0.0312    0.0190   -0.0081    0.0130    0.0257   -0.0085    0.0109
          20   -0.0683    0.0273    0.0036   -0.0080    0.0002   -0.0108    0.0051   -0.0525
          21   -0.0913   -0.0218   -0.0050    0.0021   -0.0018   -0.0180   -0.0131   -0.0400
          22    0.0131   -0.0145    0.0111   -0.0111    0.0102    0.0270   -0.0019    0.0051
          23    0.0381    0.0536   -0.0033   -0.0064   -0.0046   -0.0158    0.0132   -0.0449
          24    0.0499   -0.0150   -0.0005    0.0105   -0.0028   -0.0267   -0.0135   -0.0134
          25   -0.0187   -0.0547    0.0307   -0.0036    0.0164    0.0257   -0.0179    0.0227
          26   -0.0272    0.0312   -0.0090   -0.0064   -0.0036   -0.0129    0.0067   -0.0507
          27   -0.0399   -0.0334   -0.0185    0.0080   -0.0057   -0.0221   -0.0178   -0.0301
          28    0.0028    0.0617   -0.0234   -0.0088   -0.0016    0.0153   -0.0043   -0.0192
          29    0.0045   -0.0013    0.0329   -0.0000    0.0055   -0.0088   -0.0052   -0.0016
          30   -0.0137    0.0154    0.0083    0.0198   -0.0083   -0.0212   -0.0169    0.0590
          31   -0.0057    0.0710   -0.0422   -0.1043   -0.0911   -0.0266   -0.0644   -0.0061
          32   -0.0117    0.0043    0.0262    0.0072    0.0113   -0.0099    0.0017   -0.0141
          33    0.0035    0.0143    0.0021   -0.0969   -0.1147   -0.0639   -0.0945    0.0968
          34    0.0113    0.0818   -0.0122    0.1372    0.1242    0.0698    0.0749   -0.0475
          35    0.0305    0.0087    0.0327   -0.0722   -0.0644   -0.0380   -0.0644    0.0354
          36   -0.0128    0.0144    0.0071   -0.0020   -0.0279   -0.0295   -0.0309    0.0658
          37    0.0013    0.0596   -0.0274   -0.0410   -0.0303    0.0028   -0.0221   -0.0136
          38    0.0039   -0.0248    0.0507    0.0564    0.0635    0.0190    0.0383   -0.0099
          39   -0.0058    0.0329    0.0219    0.1612    0.1144    0.0319    0.0577    0.0333
          40   -0.0041   -0.0073   -0.0004    0.0032    0.0094   -0.0160    0.0017    0.0055
          41    0.0034   -0.0129   -0.0082   -0.0066    0.0259    0.0074   -0.0009    0.0197
          42   -0.0043    0.0107   -0.0360   -0.0311    0.0964    0.0066    0.0031    0.0189
          43   -0.0090   -0.0154    0.0088    0.0048    0.0013   -0.0140    0.0008   -0.0048
          44    0.0039   -0.0062   -0.0193    0.0009   -0.0001    0.0050    0.0022    0.0125
          45    0.0003   -0.0107   -0.0220   -0.0063    0.0084    0.0094    0.0029   -0.0103
          46   -0.0006    0.0070   -0.0109    0.0083   -0.0074   -0.0178    0.0038    0.0074
          47   -0.0017   -0.0087    0.0018   -0.0005    0.0042    0.0067   -0.0016    0.0098
          48    0.0009    0.0190    0.0106   -0.0063    0.0153    0.0049   -0.0014   -0.0017
          49   -0.0064   -0.0043   -0.0017    0.0078   -0.0056   -0.0195    0.0017   -0.0001
          50   -0.0027    0.0046   -0.0228    0.0027   -0.0063   -0.0032    0.0018    0.0042
          51    0.0988   -0.0055    0.0127    0.0013    0.0024   -0.0173   -0.0041   -0.0257
          52    0.0011   -0.0295    0.0173    0.0062   -0.0038   -0.0052   -0.0010   -0.0002
          53    0.0003   -0.0106   -0.0253    0.0033   -0.0152    0.0132    0.0043    0.0114
          54   -0.0016   -0.0327   -0.0494    0.0054   -0.0617    0.0491    0.0132   -0.0158
          55    0.0169    0.0054   -0.0147    0.0092   -0.0100   -0.0212    0.0023   -0.0003
          56    0.0615   -0.0007   -0.0186    0.0038   -0.0048   -0.0029   -0.0003    0.0088
          57    0.0889   -0.0063    0.0056    0.0050   -0.0007   -0.0202   -0.0083   -0.0181
          58    0.0001    0.0191   -0.0116    0.0098   -0.0184   -0.0125    0.0071    0.0060
          59   -0.0008   -0.0113    0.0299    0.0014   -0.0074    0.0205   -0.0037    0.0196
          60   -0.0019    0.0463    0.0618    0.0009   -0.0355    0.0449    0.0036    0.0117
          61   -0.0096    0.0168   -0.0259    0.0096   -0.0121   -0.0216    0.0042    0.0018
          62   -0.0569   -0.0049   -0.0212    0.0021   -0.0067   -0.0028   -0.0030   -0.0048
          63   -0.0694   -0.0220    0.0119    0.0011   -0.0007   -0.0183   -0.0139   -0.0420
          64    0.0070   -0.0102    0.0016    0.0054   -0.0011   -0.0161   -0.0035   -0.0089
          65    0.0024    0.0189   -0.0486    0.0107   -0.0198   -0.0104    0.0040    0.0186
          66   -0.0027    0.0047    0.0237    0.0036   -0.0030   -0.0248    0.0167    0.0024
          67    0.0415   -0.0169   -0.0087    0.0196    0.0158    0.0032   -0.0561   -0.0423
          68    0.0155   -0.0004   -0.0229   -0.0694   -0.0689   -0.0664    0.1617    0.0484
          69   -0.0052    0.0097    0.0192    0.0195    0.0059   -0.0147   -0.0119   -0.0004
          70   -0.0107   -0.0216    0.0333   -0.0283   -0.0114   -0.0344    0.0587    0.0048
          71   -0.0042    0.0349   -0.0731    0.0625    0.0054    0.0217   -0.0893    0.0057
          72   -0.0232    0.0235    0.0049    0.0650    0.0308    0.0150   -0.0931   -0.0093
          73    0.0014    0.0025   -0.0164    0.0217   -0.0038   -0.0138   -0.0198    0.0010
          74   -0.0005    0.0337   -0.0734    0.0455   -0.0093    0.0068   -0.0536    0.0157
          75   -0.0131   -0.0088    0.0562   -0.0717   -0.0503   -0.0809    0.1769    0.0455


   Root No.       9        10        11        12        13        14        15        16

                 9 A      10 A      11 A      12 A      13 A      14 A      15 A      16 A   

                 213.3     222.3     266.5     289.8     325.0     374.5     398.3     437.2
  
           1    0.0055    0.0005   -0.0037    0.0274    0.0094    0.0077    0.0339    0.0488
           2   -0.0077   -0.0060    0.0135   -0.0311    0.0182    0.0009    0.0061    0.0128
           3    0.0129   -0.0109   -0.0024   -0.0036    0.0684    0.0408   -0.0242    0.0227
           4    0.0036    0.0006   -0.0029    0.0248    0.0089    0.0074    0.0309    0.0450
           5   -0.0316   -0.0028    0.0190   -0.0541    0.0242   -0.0009   -0.0126    0.0202
           6   -0.0090    0.0198   -0.0173    0.0180    0.0760    0.0513   -0.0561    0.0713
           7    0.0247   -0.0026   -0.0051    0.0324    0.0033    0.0075    0.0170   -0.0015
           8    0.0031   -0.0074    0.0129   -0.0285    0.0116   -0.0006   -0.0026   -0.0183
           9    0.0514   -0.0313    0.0113   -0.0306    0.0175   -0.0038    0.0285   -0.0215
          10    0.0375   -0.0103    0.0000    0.0228   -0.0029   -0.0023    0.0372   -0.0208
          11    0.0097   -0.0108    0.0163   -0.0427    0.0169   -0.0005   -0.0197   -0.0658
          12    0.1016   -0.0581    0.0264   -0.0547   -0.0052   -0.0360    0.0980   -0.0876
          13   -0.0042    0.0020   -0.0015    0.0030   -0.0012    0.0039   -0.0302   -0.0134
          14    0.0023   -0.0057    0.0088   -0.0109   -0.0078   -0.0053   -0.0103    0.0036
          15    0.0211   -0.0253    0.0044   -0.0194   -0.0408   -0.0220   -0.0302    0.0267
          16   -0.0189   -0.0020    0.0051   -0.0355   -0.0178   -0.0130   -0.0521    0.0048
          17   -0.0043   -0.0108    0.0130   -0.0403   -0.0288   -0.0220   -0.0389    0.0200
          18    0.0482   -0.0427    0.0018   -0.0368   -0.1143   -0.0632   -0.1052    0.0775
          19   -0.0283    0.0097   -0.0011    0.0076    0.0108    0.0126   -0.0052   -0.0215
          20    0.0190    0.0004   -0.0060    0.0506   -0.0082    0.0129   -0.0225   -0.0311
          21   -0.0395   -0.0006    0.0056    0.0053   -0.0103    0.0014    0.0336    0.0047
          22    0.0012    0.0041   -0.0063    0.0300    0.0070    0.0156   -0.0338   -0.0399
          23    0.0482   -0.0047   -0.0102    0.0786    0.0107    0.0247   -0.0291   -0.0739
          24   -0.0517    0.0012    0.0094   -0.0005    0.0248    0.0125    0.0791   -0.0201
          25   -0.0698    0.0157    0.0075   -0.0298    0.0171    0.0078    0.0332    0.0077
          26    0.0238   -0.0027   -0.0154    0.0606   -0.0168    0.0168   -0.0368   -0.0335
          27   -0.0647   -0.0009   -0.0044   -0.0061   -0.0220    0.0041    0.0405    0.0264
          28   -0.0337   -0.0093    0.0150   -0.0317    0.0083   -0.0026   -0.0054   -0.0047
          29   -0.0002   -0.0121    0.0111    0.0031   -0.0138   -0.0096    0.0329    0.0331
          30   -0.0164   -0.0379    0.0116    0.0246   -0.0308   -0.0019   -0.0115   -0.0063
          31   -0.0394    0.0076    0.0125   -0.0793    0.0306    0.0041   -0.0400   -0.0426
          32   -0.0053   -0.0075    0.0141   -0.0277    0.0224    0.0049    0.0086    0.0184
          33   -0.0117   -0.0292    0.0037    0.0373   -0.0818   -0.0255    0.0023   -0.0158
          34   -0.0717   -0.0424    0.0371   -0.0325   -0.0281   -0.0214   -0.0170   -0.0328
          35   -0.0142   -0.0202    0.0142    0.0217   -0.1010   -0.0498    0.0457    0.0074
          36   -0.0144   -0.0356    0.0099    0.0263   -0.0373   -0.0048   -0.0090   -0.0067
          37   -0.0290   -0.0031    0.0120   -0.0365    0.0163    0.0008   -0.0085   -0.0056
          38    0.0266   -0.0142    0.0023    0.0537   -0.0074    0.0006    0.0734    0.0909
          39   -0.0499   -0.0678    0.0300    0.0309   -0.0743   -0.0228   -0.0149   -0.0278
          40    0.0061    0.0047    0.0002   -0.0022    0.0012   -0.0508   -0.0000   -0.0025
          41   -0.0008    0.0036   -0.0072   -0.0034   -0.0073    0.0285    0.0015    0.0029
          42    0.0019    0.0082    0.0043   -0.0048   -0.0074   -0.0088    0.0018   -0.0000
          43    0.0050    0.0063    0.0025    0.0009   -0.0033   -0.0257   -0.0023    0.0044
          44   -0.0036   -0.0045   -0.0284   -0.0036   -0.0001    0.0182   -0.0024    0.0022
          45   -0.0022    0.0056    0.0002    0.0067    0.0118    0.0034   -0.0166    0.0170
          46    0.0056   -0.0015   -0.0107   -0.0061   -0.0007   -0.0248    0.0024   -0.0075
          47   -0.0038   -0.0006   -0.0123    0.0020   -0.0041    0.0208    0.0036   -0.0005
          48   -0.0036   -0.0018    0.0085    0.0084    0.0089   -0.0001    0.0105   -0.0228
          49    0.0048    0.0012   -0.0045    0.0021    0.0064   -0.0320   -0.0035    0.0042
          50   -0.0051   -0.0057   -0.0294    0.0011    0.0002    0.0158   -0.0027    0.0008
          51   -0.0072    0.0150   -0.0014    0.0206    0.0160    0.0124   -0.0196    0.0155
          52    0.0121    0.0240    0.0560   -0.0075   -0.0224    0.0823    0.0023   -0.0038
          53   -0.0039   -0.0063   -0.0296   -0.0050   -0.0029    0.0095    0.0031   -0.0032
          54   -0.0030   -0.0004    0.0029   -0.0017   -0.0031   -0.0180    0.0081   -0.0075
          55    0.0013   -0.0014   -0.0074    0.0007    0.0013   -0.0292    0.0028   -0.0082
          56   -0.0058   -0.0121   -0.0238    0.0010    0.0003    0.0251    0.0043   -0.0071
          57   -0.0138   -0.0081    0.0118    0.0183    0.0189    0.0142    0.0129   -0.0291
          58    0.0075   -0.0050   -0.0291   -0.0161   -0.0213    0.0527    0.0011    0.0043
          59   -0.0025    0.0087    0.0089    0.0084    0.0173   -0.0802   -0.0032   -0.0009
          60    0.0035    0.0058   -0.0004   -0.0051   -0.0040    0.0119   -0.0060    0.0086
          61    0.0009   -0.0065   -0.0143   -0.0036    0.0001   -0.0406    0.0099   -0.0184
          62   -0.0164   -0.0121   -0.0230    0.0012   -0.0083    0.0192    0.0165   -0.0128
          63   -0.0296   -0.0027    0.0176    0.0223    0.0045    0.0157    0.0240   -0.0260
          64    0.0009   -0.0250   -0.0181    0.0072    0.0150   -0.0219   -0.0082    0.0083
          65    0.0059    0.0393    0.0635    0.0088    0.0012   -0.0149   -0.0066    0.0064
          66    0.0004    0.0731   -0.0494   -0.0122   -0.0146   -0.0133    0.0034   -0.0042
          67    0.0045   -0.0679   -0.0132    0.0298    0.0441    0.0078   -0.0272    0.0277
          68   -0.0453   -0.0149    0.1469    0.0316    0.0042   -0.0161   -0.0223    0.0184
          69    0.0110    0.0897   -0.0679   -0.0197   -0.0189   -0.0166    0.0092   -0.0095
          70   -0.0241   -0.0583   -0.0835   -0.0046    0.0010   -0.0084    0.0015   -0.0043
          71    0.0404    0.0879    0.0536   -0.0011   -0.0008   -0.0263   -0.0000    0.0022
          72    0.0392    0.1282   -0.1105   -0.0363   -0.0278   -0.0232    0.0212   -0.0205
          73    0.0172    0.0235    0.0288    0.0038    0.0095   -0.0500   -0.0048    0.0075
          74    0.0327    0.0895    0.0947    0.0056    0.0006   -0.0369   -0.0043    0.0075
          75   -0.0448    0.0465   -0.0078   -0.0112   -0.0309   -0.0268    0.0057   -0.0107


   Root No.      17        18        19        20        21        22        23        24

                17 A      18 A      19 A      20 A      21 A      22 A      23 A      24 A   

                 462.1     554.1     585.1     615.8     619.8     662.5     718.6     800.3
  
           1   -0.0193   -0.0035   -0.0045   -0.0021    0.0010   -0.0018   -0.0009    0.0014
           2   -0.0091    0.0017   -0.0005   -0.0221    0.0117    0.0009   -0.0024    0.0032
           3   -0.0304    0.0073   -0.0056    0.0064   -0.0059   -0.0212   -0.0036    0.0081
           4   -0.0165   -0.0038   -0.0047   -0.0009   -0.0003   -0.0022   -0.0017    0.0009
           5   -0.0118   -0.0032   -0.0054   -0.0709    0.0351    0.0046   -0.0026    0.0085
           6   -0.0333   -0.0082   -0.0318    0.0100   -0.0138   -0.0408   -0.0215   -0.0331
           7    0.0036    0.0005   -0.0029    0.0537   -0.0297   -0.0018    0.0079   -0.0114
           8    0.0072    0.0049   -0.0017    0.0199   -0.0126   -0.0104    0.0014   -0.0088
           9    0.0296   -0.0060    0.0010   -0.0202    0.0105   -0.0014   -0.0052   -0.0074
          10    0.0252   -0.0015    0.0032    0.0536   -0.0285    0.0043    0.0114    0.0299
          11    0.0296    0.0085    0.0049    0.0124   -0.0070    0.0000    0.0009    0.0264
          12    0.1030   -0.0121    0.0217   -0.0002    0.0029    0.0159    0.0112    0.1298
          13   -0.0050    0.0030   -0.0008   -0.0270    0.0163    0.0118   -0.0064   -0.0021
          14   -0.0081    0.0054   -0.0043    0.0701   -0.0415   -0.0075    0.0079   -0.0219
          15   -0.0245   -0.0009   -0.0042   -0.0137    0.0049    0.0013   -0.0013   -0.0319
          16   -0.0223    0.0075    0.0051   -0.0211    0.0143    0.0216   -0.0078    0.0479
          17   -0.0277    0.0095    0.0018    0.0708   -0.0411    0.0031    0.0055    0.0374
          18   -0.0805    0.0037    0.0102    0.0350   -0.0218    0.0299   -0.0014    0.1469
          19    0.0070    0.0014    0.0006   -0.0236    0.0130   -0.0056   -0.0009    0.0016
          20    0.0026   -0.0008   -0.0029   -0.0089    0.0002   -0.0200   -0.0006    0.0188
          21    0.0222   -0.0095   -0.0057   -0.0015   -0.0038   -0.0184   -0.0052   -0.0149
          22   -0.0109    0.0036   -0.0054   -0.1149    0.0626   -0.0107    0.0112   -0.0346
          23   -0.0278    0.0121   -0.0172   -0.1120    0.0521   -0.0296    0.0381   -0.1076
          24    0.0077    0.0076   -0.0112    0.0368   -0.0303   -0.0195    0.0304   -0.1184
          25    0.0243   -0.0028    0.0154    0.1056   -0.0528   -0.0018   -0.0062    0.0708
          26   -0.0108   -0.0036    0.0153   -0.0548    0.0260   -0.0319    0.0054    0.1051
          27    0.0167   -0.0192    0.0378    0.0287   -0.0157   -0.0367   -0.0047    0.2018
          28    0.0010    0.0006   -0.0012   -0.0063    0.0031    0.0035    0.0008    0.0029
          29   -0.0117   -0.0013   -0.0004   -0.0384    0.0234    0.0096   -0.0011    0.0068
          30    0.0043    0.0007   -0.0022    0.0122   -0.0055   -0.0076   -0.0020    0.0007
          31    0.0066    0.0099    0.0003    0.0088   -0.0030   -0.0077   -0.0027    0.0009
          32   -0.0150    0.0060   -0.0030   -0.0286    0.0188   -0.0039   -0.0058    0.0135
          33    0.0185   -0.0074    0.0050    0.0068   -0.0032    0.0103    0.0040   -0.0172
          34    0.0220   -0.0025    0.0038   -0.0034    0.0007    0.0117    0.0012   -0.0159
          35    0.0194   -0.0118    0.0079   -0.0447    0.0303    0.0375    0.0047   -0.0239
          36    0.0056   -0.0007   -0.0010    0.0097   -0.0039   -0.0040   -0.0007   -0.0027
          37   -0.0004    0.0029   -0.0026   -0.0025    0.0016   -0.0000   -0.0004    0.0046
          38   -0.0337   -0.0090   -0.0043   -0.0534    0.0295    0.0101   -0.0016    0.0198
          39    0.0231   -0.0070    0.0058    0.0091   -0.0055    0.0064    0.0020   -0.0208
          40   -0.0045    0.0031   -0.0493    0.0180    0.0665   -0.0180    0.0102    0.0054
          41    0.0079    0.0466   -0.0134   -0.0105   -0.0292   -0.0026   -0.0011   -0.0001
          42   -0.0029   -0.0011    0.0161   -0.0023   -0.0032   -0.0580   -0.0065   -0.0007
          43    0.0168    0.0621   -0.0281    0.0146    0.0550    0.0216    0.0220    0.0010
          44    0.0087   -0.0367   -0.0355    0.0132    0.0492    0.0187    0.0191   -0.0020
          45    0.0424   -0.0446   -0.0039   -0.0066   -0.0198    0.1123    0.1260    0.0016
          46   -0.0162   -0.0501   -0.0351   -0.0123   -0.0559    0.0078   -0.0153    0.0031
          47    0.0073    0.0751   -0.0138   -0.0115   -0.0473    0.0550   -0.0253    0.0005
          48   -0.0407   -0.0051   -0.0045    0.0134    0.0149    0.1453   -0.0922    0.0025
          49    0.0049    0.0399    0.0537   -0.0000    0.0030    0.0104    0.0060   -0.0027
          50    0.0093   -0.0589    0.0447    0.0052    0.0119   -0.0022   -0.0178   -0.0022
          51    0.0572   -0.0177   -0.0332   -0.0011   -0.0038   -0.0279   -0.0784    0.0064
          52   -0.0115   -0.0537    0.0244    0.0026    0.0053   -0.0061   -0.0065   -0.0012
          53   -0.0025   -0.0240   -0.0412    0.0165    0.0605   -0.0117   -0.0162   -0.0028
          54   -0.0137    0.0255    0.0083   -0.0033   -0.0134   -0.0250   -0.0267    0.0008
          55   -0.0119   -0.0470    0.0007   -0.0085   -0.0360   -0.0152    0.0055   -0.0030
          56   -0.0174    0.0043    0.0722    0.0061    0.0177   -0.0047    0.0325    0.0030
          57   -0.0501    0.0304   -0.0220    0.0008   -0.0024   -0.0243    0.0719    0.0115
          58    0.0113    0.0299   -0.0415   -0.0164   -0.0566   -0.0083    0.0056    0.0023
          59   -0.0032   -0.0367   -0.0070   -0.0169   -0.0630   -0.0192    0.0056    0.0013
          60    0.0133    0.0037    0.0137    0.0054    0.0300   -0.0320    0.0220   -0.0006
          61   -0.0367   -0.1458    0.0112    0.0036   -0.0152    0.0154   -0.0198    0.0003
          62   -0.0204   -0.0225    0.0775    0.0083    0.0302   -0.0319    0.0585    0.0094
          63   -0.0267    0.0696   -0.0223   -0.0061    0.0007   -0.0891    0.1190    0.0178
          64    0.0196    0.0274    0.0834    0.0028    0.0092    0.0090   -0.0209   -0.0068
          65    0.0125    0.0145    0.0179    0.0030    0.0115    0.0056   -0.0072   -0.0029
          66   -0.0022    0.0033    0.0192   -0.0004    0.0005    0.0016   -0.0140   -0.0003
          67    0.0775   -0.0138    0.0484    0.0027    0.0071   -0.0339   -0.1355    0.0033
          68    0.0348    0.0347   -0.0134    0.0029    0.0108    0.0019   -0.0270    0.0019
          69   -0.0143    0.0035    0.0282   -0.0005    0.0005    0.0075    0.0071   -0.0023
          70   -0.0098   -0.0261    0.1349    0.0039    0.0067    0.0132    0.0054   -0.0171
          71    0.0035    0.0361    0.0135    0.0030    0.0131    0.0140    0.0142   -0.0014
          72   -0.0376    0.0017    0.0520    0.0004    0.0011    0.0185    0.0400   -0.0069
          73    0.0094    0.0925    0.0596    0.0020    0.0135    0.0296    0.0232   -0.0043
          74    0.0100    0.0678   -0.0044    0.0029    0.0167    0.0205    0.0190    0.0006
          75   -0.0245    0.0273    0.0283   -0.0005    0.0001    0.0230    0.0418   -0.0042


   Root No.      25        26        27        28        29        30        31        32

                25 A      26 A      27 A      28 A      29 A      30 A      31 A      32 A   

                 864.5     917.9     943.4     978.1     992.2    1009.9    1015.7    1023.0
  
           1   -0.0025    0.0034   -0.0064   -0.0019    0.0022   -0.0041    0.0064   -0.0049
           2   -0.0002    0.0010    0.0018    0.0016   -0.0009    0.0010    0.0004   -0.0006
           3   -0.0027    0.0088   -0.0000    0.0034    0.0003   -0.0009   -0.0057    0.0025
           4   -0.0020    0.0012   -0.0064   -0.0030    0.0044   -0.0046    0.0031   -0.0052
           5   -0.0094   -0.0032   -0.0264   -0.0006    0.0280   -0.0378    0.0641   -0.0373
           6   -0.0701   -0.0766   -0.1022   -0.1101    0.1686   -0.0824   -0.0230   -0.1196
           7   -0.0012   -0.0093    0.0037   -0.0060    0.0022    0.0099   -0.0274    0.0063
           8   -0.0086   -0.0070   -0.0106   -0.0072    0.0013    0.0009    0.0025   -0.0021
           9   -0.0127   -0.0327    0.0063   -0.0026    0.0120    0.0059    0.0162    0.0276
          10    0.0186    0.0435   -0.0155   -0.0057    0.0014   -0.0126   -0.0357   -0.0435
          11    0.0097    0.0288   -0.0111    0.0029    0.0001   -0.0177    0.0103   -0.0403
          12    0.0546    0.1479   -0.0602   -0.0060    0.0093   -0.0650   -0.0275   -0.1410
          13    0.0009   -0.0042    0.0096    0.0046   -0.0074    0.0005    0.0045   -0.0075
          14    0.0017    0.0021   -0.0003    0.0062   -0.0109   -0.0029    0.0046   -0.0144
          15   -0.0060   -0.0060    0.0002    0.0021   -0.0252    0.0032    0.0007   -0.0248
          16    0.0136    0.0364   -0.0171   -0.0076    0.0401   -0.0091    0.0070    0.0303
          17    0.0179    0.0408   -0.0240   -0.0043    0.0410   -0.0119    0.0061    0.0333
          18    0.0519    0.0801   -0.0277   -0.0111    0.1244   -0.0100   -0.0055    0.1508
          19   -0.0042    0.0039   -0.0128   -0.0037    0.0025   -0.0034    0.0068    0.0068
          20   -0.0009   -0.0085   -0.0044    0.0031    0.0029   -0.0044    0.0197    0.0127
          21    0.0008    0.0115   -0.0173   -0.0015    0.0028   -0.0031   -0.0121    0.0033
          22   -0.0031    0.0273   -0.0292   -0.0115   -0.0064    0.0019   -0.0479   -0.0286
          23   -0.0070    0.0696   -0.0726   -0.0288    0.0132   -0.0052   -0.0307    0.0292
          24   -0.0108    0.0711   -0.0783   -0.0283    0.0338   -0.0124    0.0365    0.1038
          25   -0.0075   -0.0459    0.0106    0.0217   -0.0007   -0.0112    0.0945    0.0508
          26   -0.0311   -0.0520   -0.0362   -0.0401   -0.0292    0.0336   -0.0349   -0.0379
          27   -0.0557   -0.1115   -0.0534   -0.0572   -0.0558    0.0575   -0.0267   -0.0431
          28    0.0023    0.0034    0.0016    0.0088   -0.0063   -0.0047    0.0232   -0.0013
          29    0.0061    0.0006    0.0084   -0.0057   -0.0024    0.0129   -0.0314    0.0103
          30   -0.0037    0.0118   -0.0073   -0.0051   -0.0175    0.0101    0.0060   -0.0004
          31    0.0018    0.0006    0.0082   -0.0383   -0.0026    0.0503   -0.1283    0.0243
          32    0.0055    0.0186    0.0084   -0.0347   -0.0276    0.0618   -0.1167    0.0295
          33   -0.0044   -0.0327    0.0002    0.0190    0.0447   -0.0466    0.0480   -0.0189
          34    0.0009   -0.0431    0.0132   -0.0154    0.0567   -0.0120   -0.0731    0.0035
          35    0.0043   -0.0761    0.0250    0.0089    0.1005   -0.0632   -0.0072   -0.0099
          36   -0.0035    0.0014   -0.0045    0.0000   -0.0030   -0.0026    0.0138   -0.0032
          37    0.0017    0.0085   -0.0000    0.0010   -0.0128    0.0054    0.0070    0.0017
          38    0.0066    0.0321   -0.0045    0.0487   -0.0408   -0.0316    0.1618   -0.0184
          39   -0.0055   -0.0407    0.0062   -0.0067    0.0529   -0.0177   -0.0407   -0.0026
          40   -0.0422   -0.0000   -0.0024    0.0523   -0.0060   -0.0284   -0.0105    0.0064
          41    0.0123   -0.0056   -0.0143    0.1112    0.0093    0.0181   -0.0051   -0.0054
          42    0.0026    0.0016    0.0042   -0.0343   -0.0016    0.0001    0.0030    0.0008
          43   -0.0426    0.0103    0.0088   -0.0514    0.0086    0.0372    0.0124   -0.0066
          44    0.0374   -0.0025   -0.0000   -0.0286   -0.0013    0.0021    0.0024    0.0001
          45   -0.0012   -0.0000    0.0007    0.0127   -0.0033   -0.0032   -0.0028    0.0027
          46    0.0099   -0.0053    0.0013    0.0029   -0.0091   -0.0221   -0.0051    0.0032
          47   -0.0231    0.0080    0.0110   -0.0571    0.0034    0.0072    0.0058   -0.0015
          48   -0.0019   -0.0017    0.0012    0.0116    0.0011   -0.0078   -0.0033   -0.0038
          49    0.0200   -0.0053   -0.0075   -0.0029   -0.0018   -0.0048   -0.0007    0.0007
          50   -0.0439    0.0119    0.0158    0.0132    0.0035   -0.0005   -0.0014    0.0000
          51   -0.0059    0.0039    0.0047    0.0039   -0.0033   -0.0002   -0.0014    0.0007
          52    0.0041    0.0006    0.0021   -0.0117   -0.0011   -0.0034    0.0004    0.0006
          53    0.0528   -0.0050   -0.0013   -0.0253    0.0001    0.0036    0.0043   -0.0017
          54   -0.0123    0.0011    0.0002    0.0076    0.0001   -0.0005   -0.0009    0.0002
          55    0.0075    0.0054   -0.0036    0.0079    0.0204    0.0539    0.0109   -0.0120
          56   -0.0542   -0.0009   -0.0125   -0.0085   -0.0164   -0.0253   -0.0066    0.0119
          57    0.0258   -0.0050    0.0149    0.0048   -0.0028    0.0111    0.0046    0.0002
          58   -0.0054   -0.0003    0.0051   -0.0162   -0.0068   -0.0182   -0.0023    0.0042
          59   -0.0023    0.0002    0.0043   -0.0262   -0.0054   -0.0111   -0.0004    0.0028
          60    0.0028   -0.0001   -0.0022    0.0106    0.0025    0.0079    0.0009   -0.0011
          61   -0.0405    0.0044   -0.0294    0.0899    0.0265    0.1246    0.0089   -0.0186
          62   -0.0474    0.0188    0.0802    0.0466    0.0393   -0.0486   -0.0228   -0.0325
          63    0.0773    0.0223    0.1666    0.0205    0.0699   -0.0921   -0.0206   -0.0578
          64    0.0575   -0.0055    0.0005    0.0037   -0.0022   -0.0062   -0.0007   -0.0006
          65   -0.0038    0.0054    0.0158    0.0054    0.0088    0.0102    0.0054   -0.0060
          66    0.0111    0.0026    0.0108    0.0110   -0.0043   -0.0036   -0.0037    0.0059
          67    0.0273    0.0247    0.0819    0.0694   -0.0069   -0.0141   -0.0191    0.0220
          68    0.0338   -0.0056   -0.0015    0.0120   -0.0172   -0.0245   -0.0152    0.0162
          69    0.0034   -0.0001   -0.0008   -0.0028    0.0026    0.0053    0.0039   -0.0035
          70   -0.0196    0.0146    0.0371    0.0056    0.0485    0.0530    0.0331   -0.0387
          71    0.0201   -0.0073   -0.0163   -0.0083   -0.0032   -0.0081   -0.0024   -0.0019
          72   -0.0034   -0.0037   -0.0132   -0.0128    0.0177    0.0159    0.0119   -0.0196
          73    0.1329   -0.0379   -0.0711   -0.0387   -0.0355   -0.0474   -0.0133    0.0155
          74    0.0662   -0.0206   -0.0411   -0.0242   -0.0246   -0.0299   -0.0091    0.0131
          75    0.0339   -0.0162   -0.0386   -0.0283   -0.0032   -0.0071    0.0012   -0.0069


   Root No.      33        34        35        36        37        38        39        40

                33 A      34 A      35 A      36 A      37 A      38 A      39 A      40 A   

                1036.0    1043.0    1068.4    1092.0    1138.3    1170.0    1202.0    1222.5
  
           1   -0.0031    0.0016    0.0000   -0.0003    0.0041    0.0592   -0.0006    0.0050
           2   -0.0029    0.0024    0.0015   -0.0033    0.0016    0.0314   -0.0007    0.0025
           3    0.0052    0.0023    0.0255   -0.0273    0.0139   -0.0099   -0.0003   -0.0073
           4   -0.0012    0.0006   -0.0010    0.0011    0.0026    0.0430    0.0011    0.0051
           5   -0.0011   -0.0132   -0.0151    0.0386   -0.0162   -0.0068   -0.0049    0.0210
           6    0.0240   -0.0462   -0.0553    0.1259   -0.0705   -0.0654   -0.0019    0.0250
           7   -0.0082    0.0070   -0.0015    0.0011   -0.0036   -0.0429   -0.0003   -0.0024
           8   -0.0189    0.0095   -0.0032    0.0042    0.0028    0.0024    0.0009   -0.0010
           9   -0.0106    0.0022   -0.0131    0.0082   -0.0063    0.0127    0.0025    0.0013
          10    0.0159   -0.0041    0.0149   -0.0022   -0.0019   -0.0262   -0.0039   -0.0005
          11   -0.0038    0.0027    0.0187   -0.0105   -0.0050   -0.1808    0.0010   -0.0083
          12    0.0713   -0.0347    0.0434   -0.0037    0.0011    0.0469   -0.0064    0.0044
          13    0.0109   -0.0074    0.0012   -0.0013    0.0019   -0.0076   -0.0010    0.0041
          14   -0.0065    0.0043    0.0055   -0.0024    0.0015    0.0183   -0.0001    0.0013
          15    0.0165   -0.0109    0.0049    0.0021    0.0181   -0.0005   -0.0010    0.0011
          16   -0.0514    0.0315   -0.0018   -0.0047   -0.0139    0.0857    0.0014    0.0135
          17   -0.0560    0.0361    0.0005   -0.0046   -0.0135    0.0782    0.0005    0.0073
          18   -0.0177    0.0170   -0.0143   -0.0003   -0.0160   -0.0598   -0.0121   -0.0073
          19    0.0021    0.0002   -0.0001    0.0028   -0.0017    0.0190   -0.0000   -0.0030
          20    0.0255   -0.0140   -0.0036    0.0032   -0.0092    0.0091    0.0016   -0.0030
          21   -0.0092    0.0140    0.0019   -0.0043   -0.0358   -0.0055    0.0061   -0.0097
          22   -0.0770    0.0528    0.0092   -0.0052   -0.0085    0.0322   -0.0057    0.0007
          23   -0.0522    0.0303    0.0182    0.0205    0.1419   -0.0042   -0.0600    0.0333
          24    0.0547   -0.0398    0.0146    0.0400    0.2093   -0.0556   -0.0683    0.0418
          25    0.1161   -0.0771   -0.0094    0.0230    0.0702    0.0490   -0.0260    0.0156
          26   -0.0604    0.0425    0.0147    0.0153    0.0713   -0.0148   -0.0072    0.0129
          27   -0.0509    0.0410    0.0254    0.0360    0.1679   -0.0257   -0.0317    0.0334
          28   -0.0066    0.0019    0.0006   -0.0007   -0.0036   -0.0445    0.0005   -0.0045
          29    0.0180   -0.0081   -0.0057    0.0030   -0.0021   -0.0366    0.0010   -0.0029
          30   -0.0059   -0.0030   -0.0267    0.0225   -0.0071    0.0124    0.0001    0.0027
          31    0.0464   -0.0160   -0.0310    0.0187    0.0013    0.0207    0.0019    0.0079
          32    0.0445   -0.0240   -0.0570    0.0400   -0.0100    0.0083   -0.0046    0.0009
          33   -0.0148    0.0168    0.0591   -0.0434    0.0152   -0.0054    0.0104    0.0065
          34    0.0286   -0.0051    0.0544   -0.0364    0.0146    0.0226    0.0016    0.0005
          35    0.0134    0.0069    0.1281   -0.0938    0.0242   -0.0145   -0.0136   -0.0195
          36   -0.0067    0.0003   -0.0042    0.0048   -0.0020    0.0020   -0.0011   -0.0012
          37   -0.0030   -0.0025   -0.0120    0.0098   -0.0061   -0.0260    0.0006   -0.0027
          38   -0.0490    0.0166   -0.0088    0.0066   -0.0164   -0.1525    0.0075   -0.0043
          39    0.0165    0.0053    0.0473   -0.0386    0.0182    0.0441   -0.0021    0.0018
          40    0.0054    0.0112   -0.0045    0.0019    0.0043   -0.0022    0.0477    0.0358
          41   -0.0003   -0.0023   -0.0046    0.0012    0.0015    0.0008   -0.0193   -0.0223
          42    0.0001   -0.0008    0.0021   -0.0018   -0.0022   -0.0004   -0.0011    0.0022
          43   -0.0061   -0.0154    0.0066   -0.0094   -0.0091    0.0022   -0.0664   -0.0417
          44   -0.0006    0.0006    0.0020    0.0031    0.0019    0.0006    0.0010    0.0008
          45   -0.0009    0.0017    0.0006    0.0050    0.0031    0.0019    0.0069    0.0050
          46    0.0008    0.0045   -0.0030    0.0026   -0.0035    0.0017   -0.0577   -0.0358
          47   -0.0013   -0.0015    0.0031   -0.0038    0.0028   -0.0018    0.0660    0.0513
          48   -0.0038   -0.0003   -0.0066    0.0013    0.0052    0.0021   -0.0048   -0.0167
          49   -0.0007   -0.0024    0.0018    0.0070    0.0023    0.0015    0.0051   -0.0472
          50    0.0004   -0.0037   -0.0061   -0.0179   -0.0078   -0.0022    0.0240   -0.0030
          51    0.0030    0.0025   -0.0156   -0.0308    0.0074   -0.0031   -0.0091   -0.0098
          52    0.0003    0.0011    0.0000    0.0001    0.0003   -0.0004    0.0070    0.0047
          53   -0.0007    0.0013    0.0014    0.0033    0.0019    0.0010   -0.0042   -0.0054
          54    0.0004   -0.0003   -0.0008   -0.0017   -0.0008   -0.0004    0.0002    0.0004
          55   -0.0061   -0.0177    0.0007   -0.0036    0.0136    0.0012    0.0941   -0.0319
          56   -0.0016   -0.0124    0.0044   -0.0031   -0.0130    0.0005   -0.0053   -0.0370
          57    0.0097    0.0085    0.0121    0.0000   -0.0293    0.0002   -0.0021    0.0197
          58    0.0022    0.0054   -0.0001    0.0002   -0.0036   -0.0006   -0.0124    0.0152
          59    0.0007    0.0020    0.0007   -0.0002   -0.0029   -0.0001   -0.0154    0.0027
          60   -0.0000   -0.0014    0.0008   -0.0003    0.0002   -0.0001    0.0063   -0.0023
          61   -0.0388   -0.0946    0.0170   -0.0491   -0.0583   -0.0106   -0.2159    0.2989
          62   -0.0694   -0.0907   -0.0658   -0.0293    0.0522   -0.0021   -0.1457    0.0980
          63   -0.0634   -0.0410   -0.1067    0.0005    0.1249    0.0072    0.0244   -0.0707
          64    0.0028    0.0098   -0.0066   -0.0034   -0.0015   -0.0015   -0.0053    0.0447
          65    0.0124    0.0306    0.0035    0.0184    0.0035    0.0001   -0.0212    0.0083
          66   -0.0108   -0.0141    0.0224    0.0280   -0.0047    0.0008    0.0044    0.0102
          67   -0.0398   -0.0405    0.1220    0.1519   -0.0169    0.0111   -0.0049    0.0129
          68   -0.0311   -0.0576    0.0253    0.0091   -0.0123    0.0051    0.0169    0.0189
          69    0.0077    0.0151   -0.0080   -0.0028    0.0025   -0.0024   -0.0051    0.0033
          70    0.0749    0.1595   -0.0435    0.0095    0.0248   -0.0040   -0.0857    0.0530
          71    0.0045    0.0005   -0.0214   -0.0323   -0.0001    0.0010   -0.0004   -0.0020
          72    0.0374    0.0633   -0.0514   -0.0477    0.0118    0.0001   -0.0287    0.0097
          73   -0.0293   -0.0737   -0.0443   -0.0902   -0.0105   -0.0078    0.0413    0.0516
          74   -0.0258   -0.0586   -0.0169   -0.0463   -0.0093   -0.0050    0.0254    0.0310
          75    0.0143    0.0100   -0.0493   -0.0683    0.0045   -0.0029    0.0064   -0.0087


   Root No.      41        42        43        44        45        46        47        48

                41 A      42 A      43 A      44 A      45 A      46 A      47 A      48 A   

                1263.2    1272.2    1273.6    1279.9    1283.8    1302.3    1314.6    1329.5
  
           1   -0.0051    0.0042    0.0084    0.0236   -0.0036    0.0240    0.0029   -0.0050
           2   -0.0089    0.0025    0.0052    0.0280   -0.0017    0.0063    0.0058   -0.0366
           3    0.0029   -0.0025   -0.0037   -0.0068    0.0004   -0.0065    0.0042    0.0082
           4   -0.0062    0.0034    0.0074    0.0196   -0.0033    0.0207    0.0021    0.0030
           5   -0.0529    0.0344    0.0551    0.1236   -0.0439   -0.1499   -0.1091    0.3034
           6    0.0084   -0.0061   -0.0177   -0.0490    0.0173    0.0216   -0.0222   -0.0694
           7   -0.0058    0.0014    0.0021    0.0087   -0.0017   -0.0101   -0.0068    0.0177
           8   -0.0005    0.0007    0.0016    0.0100   -0.0014    0.0039    0.0126   -0.0224
           9    0.0026   -0.0005   -0.0009   -0.0075    0.0013   -0.0012   -0.0030    0.0049
          10   -0.0051    0.0011   -0.0006    0.0020   -0.0022   -0.0154   -0.0080    0.0121
          11   -0.0358    0.0220    0.0486    0.1555   -0.0072    0.1929    0.0156    0.0381
          12    0.0075   -0.0038   -0.0143   -0.0366    0.0004   -0.0319   -0.0027   -0.0202
          13   -0.0034    0.0012    0.0022    0.0102    0.0010    0.0115   -0.0055   -0.0040
          14    0.0035   -0.0018   -0.0035   -0.0149    0.0004   -0.0251   -0.0037    0.0021
          15    0.0006   -0.0002   -0.0004   -0.0013    0.0002    0.0061    0.0020    0.0017
          16    0.0349   -0.0110   -0.0222   -0.1177    0.0247    0.1650   -0.0615    0.1636
          17    0.0289   -0.0100   -0.0190   -0.0980    0.0165    0.0845   -0.0392    0.1143
          18   -0.0231    0.0072    0.0152    0.0766   -0.0136   -0.0885    0.0301   -0.0971
          19    0.0027   -0.0014   -0.0027   -0.0074   -0.0018   -0.0228    0.0100   -0.0157
          20    0.0028   -0.0010   -0.0011   -0.0053    0.0004    0.0137    0.0051    0.0052
          21   -0.0009    0.0003    0.0015    0.0057   -0.0020    0.0022    0.0069    0.0027
          22    0.0030   -0.0017   -0.0047   -0.0189   -0.0058   -0.1149    0.0035   -0.0147
          23    0.0010    0.0004   -0.0048   -0.0209    0.0048   -0.0610   -0.0352    0.0025
          24   -0.0072    0.0038    0.0021    0.0123    0.0124    0.0765   -0.0413    0.0003
          25    0.0062   -0.0010   -0.0040   -0.0256   -0.0022   -0.0739   -0.0077    0.0122
          26   -0.0009    0.0007   -0.0022   -0.0024    0.0055    0.0235   -0.0153   -0.0109
          27   -0.0049    0.0041   -0.0010   -0.0012    0.0066   -0.0107   -0.0425   -0.0026
          28   -0.0170   -0.0075   -0.0097   -0.0272    0.0038   -0.0019    0.0051   -0.0077
          29    0.0191   -0.0032   -0.0072   -0.0213    0.0071   -0.0072   -0.0019    0.0188
          30   -0.0046   -0.0098   -0.0106    0.0156    0.0133    0.0016   -0.0005   -0.0016
          31    0.0556    0.0809    0.0944   -0.0473   -0.1010    0.0249   -0.0125   -0.0249
          32   -0.0615    0.0004    0.0040   -0.0282   -0.0212    0.0137   -0.0065    0.0053
          33    0.2050    0.0795    0.0832    0.0075   -0.0535   -0.0091   -0.0093   -0.0124
          34    0.2294   -0.0191   -0.0409    0.0876    0.0785   -0.0090   -0.0083    0.0140
          35   -0.1475   -0.0678   -0.0743   -0.0090    0.0429    0.0007    0.0109   -0.0018
          36   -0.0416   -0.0110   -0.0096   -0.0024    0.0034    0.0012    0.0020   -0.0019
          37    0.0165   -0.0253   -0.0329    0.0059    0.0380   -0.0014    0.0044   -0.0026
          38    0.0791    0.0491    0.0490   -0.0835   -0.0550   -0.0023   -0.0012   -0.0710
          39   -0.1396    0.0773    0.1077   -0.0817   -0.1433    0.0188   -0.0013   -0.0112
          40   -0.0010   -0.0021    0.0000   -0.0001    0.0002    0.0001    0.0055    0.0008
          41    0.0002    0.0007   -0.0012    0.0004   -0.0001    0.0014   -0.0097   -0.0025
          42   -0.0001    0.0001    0.0002   -0.0001    0.0001   -0.0004    0.0014    0.0008
          43    0.0006    0.0050   -0.0009    0.0005    0.0012   -0.0004   -0.0334   -0.0090
          44    0.0005   -0.0009    0.0002   -0.0004   -0.0006    0.0001    0.0069    0.0012
          45    0.0001   -0.0004    0.0005   -0.0001    0.0002    0.0011    0.0045   -0.0006
          46    0.0007    0.0023   -0.0012    0.0009   -0.0003    0.0018   -0.0139   -0.0035
          47   -0.0010   -0.0028    0.0017   -0.0010    0.0006   -0.0028    0.0177    0.0042
          48    0.0005    0.0005   -0.0006    0.0001   -0.0008   -0.0011   -0.0010   -0.0010
          49    0.0033   -0.0037    0.0026   -0.0010   -0.0043    0.0001    0.0677    0.0238
          50   -0.0034    0.0045   -0.0029    0.0012    0.0047    0.0002   -0.0609   -0.0138
          51    0.0017   -0.0022   -0.0014   -0.0003   -0.0037   -0.0018    0.0209    0.0100
          52    0.0000   -0.0005   -0.0001    0.0001    0.0001   -0.0001    0.0014    0.0005
          53    0.0005   -0.0001    0.0012    0.0002   -0.0006   -0.0002    0.0137    0.0042
          54   -0.0005   -0.0001   -0.0004   -0.0000   -0.0000   -0.0000   -0.0033   -0.0007
          55   -0.0005   -0.0000   -0.0009    0.0000   -0.0011   -0.0014    0.0027    0.0012
          56    0.0020   -0.0015    0.0006    0.0005   -0.0042    0.0008    0.0220    0.0076
          57   -0.0018    0.0017    0.0005    0.0012    0.0026    0.0015   -0.0156   -0.0022
          58   -0.0001   -0.0000    0.0002   -0.0002    0.0003   -0.0001   -0.0009   -0.0006
          59    0.0001    0.0003    0.0000   -0.0000    0.0000    0.0000   -0.0020   -0.0007
          60   -0.0001   -0.0001   -0.0000    0.0001    0.0000    0.0002    0.0005    0.0003
          61    0.0067   -0.0222    0.0152   -0.0074   -0.0023   -0.0037    0.1260    0.0303
          62    0.0080   -0.0160    0.0078   -0.0046   -0.0079   -0.0021    0.0988    0.0208
          63    0.0022   -0.0003   -0.0030   -0.0003   -0.0034    0.0001    0.0024   -0.0049
          64   -0.0041    0.0064    0.0004    0.0000    0.0109   -0.0005   -0.0371   -0.0141
          65    0.0039   -0.0219    0.0040    0.0008   -0.0098    0.0008    0.0025   -0.0005
          66    0.0013    0.0070   -0.0161    0.0030   -0.0125    0.0019   -0.0095   -0.0036
          67   -0.0057   -0.0564    0.1037   -0.0172    0.0564   -0.0043   -0.0086   -0.0101
          68   -0.0382    0.2285   -0.0505   -0.0080    0.0974   -0.0060    0.0239    0.0025
          69    0.0099   -0.0422   -0.0076    0.0051   -0.0336    0.0026   -0.0094   -0.0014
          70    0.0113    0.0408   -0.0908    0.0125   -0.0730    0.0061    0.0553    0.0178
          71   -0.0258    0.0485    0.0757   -0.0193    0.1227   -0.0118    0.0021   -0.0042
          72   -0.0346    0.1246    0.0528   -0.0226    0.1456   -0.0143    0.0507    0.0091
          73    0.0126   -0.0401   -0.0304    0.0104   -0.0667    0.0059   -0.0811   -0.0188
          74    0.0150   -0.0044   -0.0733    0.0159   -0.0895    0.0088   -0.0489   -0.0084
          75   -0.0002   -0.1586    0.1674   -0.0217    0.0733   -0.0103   -0.0399   -0.0139


   Root No.      49        50        51        52        53        54        55        56

                49 A      50 A      51 A      52 A      53 A      54 A      55 A      56 A   

                1364.1    1386.1    1389.8    1434.1    1509.8    1654.0    1670.0    1881.9
  
           1    0.0163    0.0023   -0.0051    0.0213   -0.0048   -0.0005    0.0501   -0.0017
           2   -0.0170    0.0004    0.0039   -0.0505    0.0268    0.0068   -0.1270    0.0062
           3   -0.0023   -0.0013   -0.0010    0.0044   -0.0213   -0.0048    0.0158   -0.0036
           4    0.0149    0.0038   -0.0076    0.0210   -0.0040   -0.0013    0.0470    0.0023
           5   -0.0693   -0.0247    0.0314    0.0131   -0.0264   -0.0152    0.0273    0.0049
           6    0.0171    0.0082   -0.0039   -0.0089    0.0568    0.0227   -0.0399    0.0001
           7   -0.0160   -0.0030    0.0058   -0.0420   -0.0103   -0.0274   -0.0589    0.0017
           8   -0.0189    0.0012   -0.0041   -0.0344   -0.0541   -0.0493    0.1294   -0.0058
           9    0.0099    0.0005   -0.0006    0.0251    0.0174    0.0219   -0.0095    0.0011
          10   -0.0253   -0.0034    0.0057   -0.0452   -0.0013   -0.0061   -0.0336    0.0025
          11    0.2077    0.0136   -0.0273    0.1297   -0.0144   -0.0672   -0.0881    0.0009
          12   -0.0352   -0.0018    0.0035   -0.0175    0.0149    0.0230    0.0199   -0.0003
          13   -0.0197    0.0006    0.0028   -0.0152    0.0535    0.1229    0.0608    0.0021
          14    0.0133    0.0006   -0.0006    0.0607    0.0427    0.0576   -0.0133    0.0018
          15    0.0004   -0.0003   -0.0004   -0.0103   -0.0298   -0.0611   -0.0188   -0.0015
          16   -0.0056   -0.0090    0.0153   -0.0964   -0.0111   -0.0127   -0.0645    0.0005
          17    0.0224   -0.0057    0.0079   -0.0093   -0.0066   -0.0320   -0.0693    0.0027
          18   -0.0006    0.0050   -0.0074    0.0302    0.0243    0.0316    0.0460   -0.0010
          19   -0.0135   -0.0006   -0.0036    0.0620   -0.0317   -0.0906   -0.0525   -0.0017
          20   -0.0046   -0.0010   -0.0007   -0.0061   -0.0223   -0.0142   -0.0005    0.0017
          21    0.0044   -0.0005   -0.0006   -0.0156   -0.0067    0.0306    0.0199    0.0034
          22    0.1673    0.0058   -0.0045   -0.0482   -0.0023   -0.0129   -0.0150    0.0016
          23    0.1453    0.0067    0.0025   -0.0903    0.0619    0.0583    0.0216    0.0069
          24   -0.1265   -0.0015    0.0079    0.0502    0.0638    0.0083   -0.0107   -0.0071
          25    0.2081    0.0056   -0.0016   -0.1541   -0.0349   -0.0314    0.0069    0.0036
          26   -0.0901   -0.0011    0.0011    0.0982    0.0230   -0.0216   -0.0290   -0.0103
          27    0.0187    0.0037    0.0037   -0.0123    0.0519    0.0222    0.0161   -0.0037
          28   -0.0017    0.0101   -0.0164   -0.0028    0.0005    0.0003   -0.0010   -0.0003
          29    0.0036    0.0192   -0.0328    0.0146   -0.0012    0.0025    0.0165   -0.0008
          30    0.0010   -0.0051    0.0112   -0.0019    0.0025   -0.0008   -0.0032    0.0005
          31    0.0307   -0.0823    0.1247    0.0391   -0.0129   -0.0025    0.0470   -0.0017
          32    0.0302   -0.0573    0.0949    0.0417   -0.0085    0.0018    0.0335   -0.0217
          33   -0.0248    0.0419   -0.0814   -0.0323    0.0173    0.0032   -0.0426    0.0059
          34    0.0138   -0.0443    0.0773    0.0199   -0.0142   -0.0010    0.0192   -0.0059
          35    0.0196   -0.0752    0.1272    0.0264   -0.0287   -0.0022    0.0293   -0.0005
          36    0.0013   -0.0089    0.0154    0.0015   -0.0048   -0.0033    0.0110   -0.0017
          37    0.0022    0.0077   -0.0097   -0.0002    0.0013    0.0008   -0.0013   -0.0001
          38    0.0075   -0.1034    0.1669   -0.0003   -0.0067   -0.0002   -0.0021    0.0025
          39   -0.0078    0.0305   -0.0688   -0.0074    0.0072    0.0007   -0.0054    0.0051
          40   -0.0004   -0.0003    0.0005    0.0004   -0.0024    0.0036   -0.0012    0.0031
          41   -0.0005    0.0006    0.0002    0.0008   -0.0004   -0.0004    0.0008    0.0047
          42    0.0001   -0.0000    0.0000   -0.0006    0.0022   -0.0004   -0.0001   -0.0017
          43    0.0012    0.0024   -0.0017    0.0016   -0.0107    0.0036   -0.0010   -0.0165
          44    0.0002   -0.0003   -0.0001    0.0010   -0.0065    0.0037    0.0020    0.2477
          45    0.0002   -0.0005    0.0000    0.0007   -0.0032   -0.0008    0.0009   -0.0514
          46   -0.0011    0.0007   -0.0003    0.0013   -0.0007   -0.0025    0.0017    0.1891
          47    0.0011   -0.0004    0.0010   -0.0013    0.0069   -0.0088    0.0013    0.1080
          48    0.0010   -0.0002   -0.0008    0.0013   -0.0082    0.0024   -0.0011   -0.0633
          49   -0.0016   -0.0031    0.0044   -0.0100    0.0804   -0.0758    0.0243    0.0037
          50    0.0026    0.0082    0.0039   -0.0036    0.0612   -0.0912    0.0314   -0.0219
          51   -0.0011   -0.0028    0.0008   -0.0015    0.0078    0.0213   -0.0120    0.0067
          52   -0.0001    0.0002    0.0001   -0.0003    0.0018   -0.0017    0.0005   -0.0042
          53   -0.0006   -0.0018   -0.0006   -0.0015    0.0048    0.0003   -0.0026   -0.1664
          54    0.0001    0.0003    0.0003    0.0002   -0.0002    0.0001    0.0003    0.0359
          55    0.0017   -0.0009   -0.0006    0.0006   -0.0298    0.0466   -0.0149   -0.0192
          56   -0.0011   -0.0042   -0.0019    0.0006   -0.0382    0.0822   -0.0252   -0.0076
          57   -0.0000    0.0024    0.0020   -0.0041    0.0314   -0.0197    0.0084    0.0015
          58    0.0005   -0.0001   -0.0005   -0.0003   -0.0014    0.0012   -0.0005   -0.1204
          59    0.0002   -0.0001   -0.0005    0.0001   -0.0026    0.0029   -0.0009   -0.0851
          60   -0.0004    0.0001    0.0003    0.0000    0.0018   -0.0010    0.0003    0.0451
          61   -0.0051   -0.0086    0.0000   -0.0026    0.0374   -0.0421    0.0092    0.0180
          62   -0.0062   -0.0100   -0.0040    0.0067   -0.0425    0.0318   -0.0138   -0.0028
          63   -0.0032   -0.0013   -0.0031    0.0093   -0.0389   -0.0174    0.0042    0.0173
          64    0.0011   -0.0352   -0.0230    0.0031   -0.0283    0.0210   -0.0062    0.0041
          65   -0.0002   -0.0106   -0.0070    0.0008   -0.0117    0.0109   -0.0035    0.0010
          66    0.0008   -0.0076   -0.0062    0.0007   -0.0069    0.0021   -0.0001   -0.0003
          67   -0.0030    0.1639    0.0923    0.0113   -0.0580    0.0250   -0.0050   -0.0056
          68    0.0002    0.0321    0.0213    0.0034   -0.0100    0.0016    0.0004    0.0061
          69    0.0007   -0.0344   -0.0212   -0.0020    0.0080   -0.0066    0.0018    0.0010
          70   -0.0030    0.1517    0.0851    0.0117   -0.0611    0.0550   -0.0170   -0.0068
          71   -0.0011   -0.0232   -0.0085    0.0001   -0.0015   -0.0075    0.0040    0.0025
          72   -0.0037    0.0837    0.0567    0.0076   -0.0408    0.0346   -0.0102    0.0053
          73    0.0005    0.1304    0.0697    0.0079   -0.0221    0.0081   -0.0031   -0.0017
          74    0.0008    0.1135    0.0602    0.0057   -0.0124    0.0053   -0.0024   -0.0088
          75   -0.0031    0.0541    0.0339    0.0029   -0.0180    0.0086   -0.0026   -0.0042


   Root No.      57        58        59        60        61        62        63        64

                57 A      58 A      59 A      60 A      61 A      62 A      63 A      64 A   

                1947.3    2649.1    2655.2    2665.3    2669.3    2682.0    2706.7    2747.1
  
           1   -0.0014   -0.0021    0.0003    0.0062   -0.0006   -0.0005   -0.0395    0.0018
           2    0.0057   -0.0016   -0.0001    0.0013    0.0001   -0.0001    0.0031   -0.0007
           3   -0.0025   -0.0019   -0.0000   -0.0018    0.0000    0.0000   -0.0003   -0.0003
           4    0.0018    0.0451   -0.0031   -0.1039    0.0093    0.0056    0.5320   -0.0176
           5    0.0028   -0.0020    0.0001    0.0032   -0.0003   -0.0022   -0.0050    0.0007
           6   -0.0062   -0.0004    0.0001    0.0002    0.0000    0.0006   -0.0065    0.0003
           7    0.0016   -0.0005   -0.0001    0.0002   -0.0002   -0.0006    0.0070    0.0033
           8   -0.0047    0.0008    0.0002   -0.0009   -0.0000   -0.0011    0.0001    0.0009
           9    0.0013   -0.0002    0.0000    0.0002    0.0002    0.0004   -0.0026   -0.0012
          10   -0.0019    0.0004    0.0019    0.0076    0.0017    0.0037   -0.1245   -0.0511
          11    0.0005    0.0000   -0.0001    0.0003    0.0001   -0.0003   -0.0029    0.0007
          12   -0.0009    0.0000   -0.0007   -0.0021   -0.0012   -0.0009    0.0369    0.0148
          13    0.0023   -0.0001   -0.0001   -0.0001   -0.0000    0.0036    0.0001   -0.0064
          14    0.0016    0.0000   -0.0001    0.0001    0.0002   -0.0034    0.0014    0.0107
          15   -0.0005    0.0000    0.0001    0.0000   -0.0000   -0.0008   -0.0005   -0.0016
          16   -0.0020    0.0006   -0.0000    0.0015    0.0005   -0.0598    0.0090    0.0987
          17    0.0031   -0.0010   -0.0001   -0.0019   -0.0011    0.0857   -0.0121   -0.1335
          18   -0.0027    0.0003    0.0000    0.0002   -0.0001   -0.0108    0.0014    0.0152
          19   -0.0017    0.0000    0.0001    0.0004   -0.0003   -0.0174    0.0007    0.0112
          20   -0.0010    0.0000   -0.0002   -0.0008    0.0005    0.0386    0.0000    0.0081
          21   -0.0003   -0.0001    0.0001    0.0005   -0.0003   -0.0236    0.0001   -0.0033
          22   -0.0048    0.0006   -0.0010   -0.0076    0.0053    0.3596   -0.0069   -0.0752
          23   -0.0109   -0.0001    0.0007    0.0050   -0.0038   -0.2501    0.0071    0.0620
          24    0.0004    0.0003   -0.0004   -0.0034    0.0024    0.1698   -0.0047   -0.0424
          25   -0.0055   -0.0001    0.0009    0.0023   -0.0017   -0.1297   -0.0029   -0.0721
          26    0.0086   -0.0001    0.0018    0.0041   -0.0027   -0.2365   -0.0067   -0.1571
          27    0.0010    0.0002   -0.0010   -0.0023    0.0015    0.1350    0.0037    0.0897
          28   -0.0008    0.0193   -0.0002   -0.0318    0.0014   -0.0011   -0.0103    0.0004
          29   -0.0013   -0.0242   -0.0004    0.0073   -0.0009    0.0002    0.0032   -0.0002
          30    0.0010   -0.0344   -0.0017   -0.0237    0.0004   -0.0007   -0.0027    0.0001
          31    0.0014   -0.1857   -0.0053    0.0336   -0.0035    0.0011    0.0343   -0.0012
          32   -0.0149    0.3740    0.0082   -0.0933    0.0098   -0.0027   -0.0741    0.0027
          33    0.0011    0.1699    0.0025   -0.0593    0.0059   -0.0016   -0.0382    0.0014
          34   -0.0026    0.0369    0.0017    0.0098   -0.0001    0.0003    0.0022   -0.0002
          35    0.0012   -0.0539   -0.0029   -0.0366    0.0010   -0.0008   -0.0078    0.0002
          36    0.0008    0.3028    0.0202    0.2985   -0.0094    0.0074    0.0766   -0.0025
          37   -0.0008   -0.0951    0.0066    0.3568   -0.0148    0.0120    0.0555   -0.0028
          38    0.0037   -0.0204   -0.0002    0.0349   -0.0008    0.0012    0.0105   -0.0005
          39    0.0010   -0.0383   -0.0005    0.0616   -0.0017    0.0022    0.0088   -0.0004
          40   -0.0053   -0.0001    0.0000    0.0000   -0.0000   -0.0001   -0.0001   -0.0003
          41    0.0034   -0.0002    0.0000    0.0001   -0.0001    0.0000    0.0001    0.0004
          42   -0.0005    0.0001   -0.0000    0.0000    0.0000   -0.0001   -0.0001   -0.0000
          43    0.0062    0.0002   -0.0001   -0.0001   -0.0003    0.0003    0.0006   -0.0002
          44    0.2299    0.0016   -0.0001   -0.0003    0.0007    0.0000   -0.0008    0.0007
          45   -0.0514   -0.0004    0.0001    0.0001   -0.0002    0.0000    0.0001   -0.0002
          46   -0.2051    0.0000   -0.0001    0.0000   -0.0001    0.0004    0.0002    0.0017
          47   -0.1438    0.0002   -0.0001   -0.0000    0.0001   -0.0004   -0.0002   -0.0010
          48    0.0751   -0.0001    0.0001   -0.0000   -0.0000    0.0001    0.0001    0.0002
          49    0.0361    0.0001   -0.0002    0.0001    0.0004   -0.0001   -0.0005    0.0003
          50    0.0020   -0.0002    0.0001   -0.0001   -0.0034    0.0000    0.0001   -0.0014
          51   -0.0008    0.0001   -0.0031    0.0003   -0.0001   -0.0000   -0.0007    0.0009
          52   -0.0037   -0.0001    0.0001   -0.0000   -0.0001   -0.0000   -0.0000   -0.0000
          53   -0.1391   -0.0008    0.0000    0.0002   -0.0002   -0.0000    0.0003   -0.0001
          54    0.0301    0.0003   -0.0001   -0.0000    0.0001   -0.0000   -0.0001    0.0000
          55    0.0178   -0.0000    0.0001    0.0000    0.0003    0.0003   -0.0002    0.0112
          56   -0.0214    0.0001   -0.0004   -0.0000    0.0008   -0.0013    0.0004   -0.0210
          57    0.0026   -0.0000    0.0002    0.0001   -0.0004    0.0001   -0.0001    0.0140
          58    0.1243   -0.0001    0.0000   -0.0000    0.0000   -0.0001   -0.0000   -0.0002
          59    0.0882   -0.0001    0.0000   -0.0000   -0.0000    0.0000    0.0000   -0.0001
          60   -0.0466    0.0000   -0.0000    0.0000    0.0000   -0.0000   -0.0000    0.0001
          61   -0.0024    0.0006   -0.0025   -0.0004    0.0026   -0.0084    0.0020   -0.1511
          62   -0.0184   -0.0010    0.0042    0.0007   -0.0042    0.0159   -0.0037    0.2668
          63    0.0055    0.0005   -0.0027   -0.0006    0.0034   -0.0083    0.0025   -0.1816
          64   -0.0053   -0.0004    0.0095    0.0001    0.0110   -0.0002   -0.0002   -0.0007
          65   -0.0015    0.0004    0.0048   -0.0017   -0.0446    0.0006    0.0003   -0.0005
          66   -0.0015    0.0014   -0.0464    0.0010   -0.0023   -0.0001   -0.0000    0.0001
          67   -0.0064   -0.0025    0.0682   -0.0007    0.0215    0.0000    0.0005    0.0004
          68    0.0034   -0.0031    0.1099   -0.0024    0.0043    0.0004    0.0010    0.0017
          69   -0.0002   -0.0152    0.4572   -0.0066    0.1196    0.0006    0.0037    0.0073
          70   -0.0118    0.0013   -0.1058    0.0076    0.1274   -0.0017    0.0001    0.0047
          71    0.0029    0.0046   -0.2540    0.0146    0.2609   -0.0035    0.0004    0.0111
          72    0.0001   -0.0009    0.1322   -0.0087   -0.1740    0.0022   -0.0004   -0.0067
          73   -0.0040    0.0064   -0.0728   -0.0080   -0.2849    0.0038    0.0039    0.0050
          74   -0.0086   -0.0073    0.0872    0.0087    0.2961   -0.0041   -0.0045   -0.0062
          75   -0.0036   -0.0011   -0.0012    0.0026    0.0841   -0.0014   -0.0015   -0.0019


   Root No.      65        66        67        68        69

                65 A      66 A      67 A      68 A      69 A   

                2751.2    2755.8    2762.2    2773.7    2774.4
  
           1   -0.0056    0.0004   -0.0048   -0.0052   -0.0020
           2    0.0017   -0.0008    0.0016   -0.0037   -0.0011
           3   -0.0001    0.0002   -0.0000    0.0015    0.0006
           4    0.0592   -0.0014    0.0525    0.0466    0.0173
           5   -0.0018   -0.0001   -0.0033    0.0005   -0.0001
           6   -0.0000   -0.0002   -0.0002   -0.0011   -0.0004
           7   -0.0163    0.0039   -0.0217   -0.0056   -0.0042
           8   -0.0017    0.0013    0.0018    0.0011    0.0004
           9    0.0052   -0.0015    0.0058    0.0013    0.0011
          10    0.2249   -0.0515    0.2835    0.0686    0.0531
          11   -0.0024    0.0008   -0.0020   -0.0013   -0.0006
          12   -0.0652    0.0149   -0.0827   -0.0199   -0.0153
          13    0.0111   -0.0052   -0.0123   -0.0016   -0.0020
          14   -0.0177    0.0039    0.0128    0.0011    0.0024
          15    0.0027    0.0001   -0.0007    0.0001   -0.0002
          16   -0.1687    0.0493    0.1349    0.0134    0.0238
          17    0.2264   -0.0644   -0.1821   -0.0183   -0.0320
          18   -0.0255    0.0066    0.0206    0.0021    0.0036
          19    0.0031   -0.0216   -0.0030    0.0009    0.0003
          20   -0.0049   -0.0094    0.0029    0.0006    0.0010
          21    0.0027    0.0061   -0.0015   -0.0005   -0.0004
          22   -0.0342    0.1564    0.0362   -0.0040   -0.0007
          23    0.0216   -0.1245   -0.0247    0.0037    0.0011
          24   -0.0151    0.0835    0.0163   -0.0023   -0.0010
          25    0.0168    0.1144   -0.0011   -0.0047   -0.0052
          26    0.0321    0.2554    0.0003   -0.0104   -0.0111
          27   -0.0185   -0.1445   -0.0003    0.0060    0.0061
          28   -0.0003   -0.0007    0.0016   -0.0086   -0.0030
          29    0.0012   -0.0010    0.0039   -0.0116   -0.0040
          30   -0.0005    0.0003   -0.0014    0.0046    0.0016
[...]
 TRAVEL (Ang.)       0.4806         C  7 -- H  8          +9.3% ( 34.6%)      0.3%
 REDUCED MASS        0.2853         C  1 -- H  2          +9.1% ( 34.1%)      0.8%
 EFFECTIVE MASS      3.4126
 FORCE CONSTANT      0.1759

 VIBRATION         33   33A           ATOM PAIR      ENERGY CONTRIBUTION    RADIAL
 FREQUENCY          1035.97         C  7 -- H  9         +16.9% ( 54.7%)     15.7%
 TRANSITION DIPOLE   0.4926         C  7 -- H  8         +13.6% ( 49.0%)      7.7%
 TRAVEL (Ang.)       0.4914         C  5 -- C  7          +6.4% ( 33.6%)      0.2%
 REDUCED MASS        0.2695         C 19 -- H 21          +6.3% ( 33.4%)      0.7%
 EFFECTIVE MASS      4.1601
 FORCE CONSTANT      0.1704

 VIBRATION         34   34A           ATOM PAIR      ENERGY CONTRIBUTION    RADIAL
 FREQUENCY          1042.95         C 22 -- H 24         +19.9% ( 60.6%)     25.5%
 TRANSITION DIPOLE   0.3345         C 22 -- H 25         +12.1% ( 47.2%)      4.0%
 TRAVEL (Ang.)       0.4335         C 19 -- H 21         +11.1% ( 45.4%)      2.7%
 REDUCED MASS        0.3441         C 22 -- H 23          +9.7% ( 42.4%)      1.1%
 EFFECTIVE MASS      4.3867
 FORCE CONSTANT      0.2205

 VIBRATION         35   35A           ATOM PAIR      ENERGY CONTRIBUTION    RADIAL
 FREQUENCY          1068.38         C 10 -- H 12         +16.7% ( 48.9%)     18.5%
 TRANSITION DIPOLE   0.1802         C 22 -- H 23         +14.4% ( 45.4%)     15.3%
 TRAVEL (Ang.)       0.4773         C 10 -- H 11         +10.5% ( 38.7%)      8.4%
 REDUCED MASS        0.2771         C 19 -- H 21          +9.3% ( 36.5%)      0.3%
 EFFECTIVE MASS      3.7367
 FORCE CONSTANT      0.1863

 VIBRATION         36   36A           ATOM PAIR      ENERGY CONTRIBUTION    RADIAL
 FREQUENCY          1092.04         C 22 -- H 23         +17.3% ( 50.8%)     21.3%
 TRANSITION DIPOLE   0.2612         C 22 -- H 25         +14.8% ( 47.0%)      9.3%
 TRAVEL (Ang.)       0.3658         C  1 -- H  2         +10.1% ( 38.8%)      0.0%
 REDUCED MASS        0.4615         C 17 -- C 22          +9.3% ( 37.2%)      3.0%
 EFFECTIVE MASS      4.4470
 FORCE CONSTANT      0.3243

 VIBRATION         37   37A           ATOM PAIR      ENERGY CONTRIBUTION    RADIAL
 FREQUENCY          1138.27         C  7 -- H  8         +33.0% ( 58.4%)      0.6%
 TRANSITION DIPOLE   0.9830         C  7 -- H  9         +20.7% ( 46.3%)      0.4%
 TRAVEL (Ang.)       0.3893         C 19 -- H 21         +13.9% ( 37.9%)      0.0%
 REDUCED MASS        0.3909         C  7 -- C 19          +6.1% ( 25.2%)      8.0%
 EFFECTIVE MASS      3.0416
 FORCE CONSTANT      0.2984

 VIBRATION         38   38A           ATOM PAIR      ENERGY CONTRIBUTION    RADIAL
 FREQUENCY          1170.04         C  1 -- C 10         +20.3% ( 68.6%)     74.1%
 TRANSITION DIPOLE   0.4213         C  1 -- C  3         +14.6% ( 58.2%)      6.6%
 TRAVEL (Ang.)       0.2096         C  3 -- H  4         +11.1% ( 50.8%)     27.1%
 REDUCED MASS        1.3121         C  1 -- C 17          +8.5% ( 44.4%)      2.9%
 EFFECTIVE MASS      8.0614
 FORCE CONSTANT      1.0584

 VIBRATION         39   39A           ATOM PAIR      ENERGY CONTRIBUTION    RADIAL
 FREQUENCY          1201.99         C 16 -- C 19         +18.5% ( 65.9%)     93.1%
 TRANSITION DIPOLE   1.9424         C 19 -- H 21         +16.9% ( 63.0%)      4.5%
 TRAVEL (Ang.)       0.1739         C 15 -- C 16         +11.3% ( 51.6%)     87.2%
 REDUCED MASS        1.8552         O 14 -- C 16         +10.8% ( 50.3%)     50.1%
 EFFECTIVE MASS      9.9134
 FORCE CONSTANT      1.5792

 VIBRATION         40   40A           ATOM PAIR      ENERGY CONTRIBUTION    RADIAL
 FREQUENCY          1222.46         C 19 -- H 21         +20.9% ( 65.8%)      1.8%
 TRANSITION DIPOLE   0.8784         C 17 -- C 22         +10.4% ( 46.5%)     98.4%
 TRAVEL (Ang.)       0.2440         O 14 -- C 16          +9.2% ( 43.6%)     65.4%
 REDUCED MASS        0.9266         C 16 -- C 19          +8.7% ( 42.3%)      3.4%
 EFFECTIVE MASS      7.9834
 FORCE CONSTANT      0.8159

 VIBRATION         41   41A           ATOM PAIR      ENERGY CONTRIBUTION    RADIAL
 FREQUENCY          1263.23         C 10 -- H 12         +39.6% ( 55.7%)      0.5%
 TRANSITION DIPOLE   0.6237         C 10 -- H 11         +28.0% ( 46.9%)      4.8%
 TRAVEL (Ang.)       0.4053         C 10 -- H 13         +14.9% ( 34.1%)     11.5%
 REDUCED MASS        0.3250         C  1 -- C 10          +4.8% ( 19.5%)     46.0%
 EFFECTIVE MASS      1.6261
 FORCE CONSTANT      0.3056

 VIBRATION         42   42A           ATOM PAIR      ENERGY CONTRIBUTION    RADIAL
 FREQUENCY          1272.17         C 22 -- H 23         +37.7% ( 54.3%)      0.1%
 TRANSITION DIPOLE   0.3001         C 22 -- H 25         +18.7% ( 38.3%)      7.2%
 TRAVEL (Ang.)       0.4547         C 22 -- H 24         +14.3% ( 33.4%)     11.9%
 REDUCED MASS        0.2563         C 10 -- H 11          +9.1% ( 26.6%)      0.4%
 EFFECTIVE MASS      1.6399
 FORCE CONSTANT      0.2444

 VIBRATION         43   43A           ATOM PAIR      ENERGY CONTRIBUTION    RADIAL
 FREQUENCY          1273.65         C 22 -- H 25         +26.5% ( 45.9%)      0.0%
 TRANSITION DIPOLE   0.6854         C 10 -- H 11         +14.0% ( 33.3%)      0.9%
 TRAVEL (Ang.)       0.5486         C 22 -- H 24         +13.2% ( 32.3%)      4.8%
 REDUCED MASS        0.1759         C 10 -- H 13         +12.3% ( 31.2%)      4.5%
 EFFECTIVE MASS      1.6557         C 22 -- H 23         +11.0% ( 29.6%)     11.1%
 FORCE CONSTANT      0.1681

 VIBRATION         44   44A           ATOM PAIR      ENERGY CONTRIBUTION    RADIAL
 FREQUENCY          1279.85         C  1 -- C 10         +16.3% ( 48.0%)     89.7%
 TRANSITION DIPOLE   0.4223         C  5 -- H  6         +15.0% ( 46.1%)      6.7%
 TRAVEL (Ang.)       0.3424         C  3 -- H  4         +12.4% ( 41.9%)      3.9%
 REDUCED MASS        0.4494         C  1 -- H  2         +11.9% ( 41.0%)     73.6%
 EFFECTIVE MASS      4.2696
 FORCE CONSTANT      0.4337

 VIBRATION         45   45A           ATOM PAIR      ENERGY CONTRIBUTION    RADIAL
 FREQUENCY          1283.76         C 22 -- H 24         +30.2% ( 48.2%)      0.0%
 TRANSITION DIPOLE   0.2250         C 10 -- H 13         +17.9% ( 37.1%)      0.8%
 TRAVEL (Ang.)       0.5132         C 22 -- H 25         +13.5% ( 32.2%)      8.8%
 REDUCED MASS        0.1994         C 10 -- H 11         +10.9% ( 28.9%)      3.2%
 EFFECTIVE MASS      1.5844         C 22 -- H 23         +10.5% ( 28.4%)      8.6%
 FORCE CONSTANT      0.1936

 VIBRATION         46   46A           ATOM PAIR      ENERGY CONTRIBUTION    RADIAL
 FREQUENCY          1302.35         C  5 -- H  6         +23.7% ( 52.9%)      9.2%
 TRANSITION DIPOLE   0.1312         C  3 -- H  4         +18.9% ( 47.2%)      2.0%
 TRAVEL (Ang.)       0.4402         C  1 -- H  2         +13.6% ( 40.0%)     10.9%
 REDUCED MASS        0.2672         C  7 -- H  8         +11.0% ( 36.0%)     21.3%
 EFFECTIVE MASS      2.8946
 FORCE CONSTANT      0.2670

 VIBRATION         47   47A           ATOM PAIR      ENERGY CONTRIBUTION    RADIAL
 FREQUENCY          1314.61         C 17 -- C 22         +19.5% ( 65.5%)     51.1%
 TRANSITION DIPOLE   1.2851         C 15 -- C 17         +18.3% ( 63.5%)     95.6%
 TRAVEL (Ang.)       0.1392         C 17 -- C 19         +17.1% ( 61.4%)     20.5%
 REDUCED MASS        2.6461         C  1 -- C 17         +14.2% ( 55.9%)      1.0%
 EFFECTIVE MASS      8.5363
 FORCE CONSTANT      2.6943

 VIBRATION         48   48A           ATOM PAIR      ENERGY CONTRIBUTION    RADIAL
 FREQUENCY          1329.52         C  1 -- H  2         +38.5% ( 74.0%)      0.2%
 TRANSITION DIPOLE   0.1183         C  5 -- H  6         +15.1% ( 46.3%)      0.2%
 TRAVEL (Ang.)       0.3457         C  1 -- C 17          +7.2% ( 32.1%)      0.0%
 REDUCED MASS        0.4244         C  1 -- C 10          +7.2% ( 31.9%)     76.5%
 EFFECTIVE MASS      3.3026
 FORCE CONSTANT      0.4420

 VIBRATION         49   49A           ATOM PAIR      ENERGY CONTRIBUTION    RADIAL
 FREQUENCY          1364.11         C  7 -- H  8         +25.7% ( 50.5%)      0.1%
 TRANSITION DIPOLE   0.3838         C  3 -- H  4         +25.0% ( 49.9%)      2.7%
 TRAVEL (Ang.)       0.4141         C  7 -- H  9         +20.0% ( 44.6%)      1.2%
 REDUCED MASS        0.2883         C  3 -- C  5          +6.7% ( 25.8%)     75.0%
 EFFECTIVE MASS      2.1451
 FORCE CONSTANT      0.3161

 VIBRATION         50   50A           ATOM PAIR      ENERGY CONTRIBUTION    RADIAL
 FREQUENCY          1386.12         C 22 -- H 25         +23.1% ( 49.4%)      1.2%
 TRANSITION DIPOLE   0.6141         C 22 -- H 24         +22.0% ( 48.2%)      2.2%
 TRAVEL (Ang.)       0.3925         C 22 -- H 23         +21.2% ( 47.4%)      1.4%
 REDUCED MASS        0.3157         C 10 -- H 11          +8.3% ( 29.7%)      1.8%
 EFFECTIVE MASS      2.3738
 FORCE CONSTANT      0.3574

 VIBRATION         51   51A           ATOM PAIR      ENERGY CONTRIBUTION    RADIAL
 FREQUENCY          1389.76         C 10 -- H 13         +22.7% ( 50.2%)      1.9%
 TRANSITION DIPOLE   1.2206         C 10 -- H 11         +22.4% ( 49.9%)      1.8%
 TRAVEL (Ang.)       0.3761         C 10 -- H 12         +17.4% ( 44.0%)      1.5%
 REDUCED MASS        0.3431         C 22 -- H 24          +8.1% ( 30.0%)      2.1%
 EFFECTIVE MASS      2.6375
 FORCE CONSTANT      0.3904

 VIBRATION         52   52A           ATOM PAIR      ENERGY CONTRIBUTION    RADIAL
 FREQUENCY          1434.08         C  3 -- C  5         +15.6% ( 56.7%)     97.7%
 TRANSITION DIPOLE   0.3735         C  5 -- C  7         +14.6% ( 54.9%)     49.8%
 TRAVEL (Ang.)       0.1841         C  7 -- H  9         +11.8% ( 49.3%)      1.9%
 REDUCED MASS        1.3869         C  1 -- C  3         +10.5% ( 46.6%)     46.1%
 EFFECTIVE MASS      8.5835
 FORCE CONSTANT      1.6805

 VIBRATION         53   53A           ATOM PAIR      ENERGY CONTRIBUTION    RADIAL
 FREQUENCY          1509.80         C 17 -- C 19         +17.2% ( 67.3%)     88.0%
 TRANSITION DIPOLE   1.3675         C 17 -- C 22         +12.5% ( 57.2%)     88.2%
 TRAVEL (Ang.)       0.1403         C  1 -- C 17         +10.9% ( 53.4%)      5.1%
 REDUCED MASS        2.2704         C  3 -- C  5         +10.6% ( 52.7%)     98.1%
 EFFECTIVE MASS     10.7739         C 15 -- C 17         +10.2% ( 51.9%)      2.1%
 FORCE CONSTANT      3.0492

 VIBRATION         54   54A           ATOM PAIR      ENERGY CONTRIBUTION    RADIAL
 FREQUENCY          1653.96         C  5 -- C  7         +19.2% ( 66.4%)     92.5%
 TRANSITION DIPOLE   0.4350         C 17 -- C 19         +14.0% ( 56.7%)     98.1%
 TRAVEL (Ang.)       0.1204         C  3 -- C  5         +13.0% ( 54.7%)     78.6%
 REDUCED MASS        2.8142         C  5 -- H  6          +9.6% ( 46.9%)      0.9%
 EFFECTIVE MASS     11.7082
 FORCE CONSTANT      4.5359

 VIBRATION         55   55A           ATOM PAIR      ENERGY CONTRIBUTION    RADIAL
 FREQUENCY          1670.04         C  1 -- C  3         +30.0% ( 82.9%)     97.2%
 TRANSITION DIPOLE   1.1019         C  3 -- C  5         +12.5% ( 53.6%)     14.3%
 TRAVEL (Ang.)       0.1074         C  1 -- C 17         +10.7% ( 49.5%)      1.8%
 REDUCED MASS        3.4985         C  3 -- H  4         +10.4% ( 48.8%)      7.2%
 EFFECTIVE MASS     11.3789         C  1 -- C 10         +10.1% ( 48.1%)     48.7%
 FORCE CONSTANT      5.7489

 VIBRATION         56   56A           ATOM PAIR      ENERGY CONTRIBUTION    RADIAL
 FREQUENCY          1881.94         C 15 -- O 18         +24.4% ( 74.9%)     99.7%
 TRANSITION DIPOLE   7.0746         C 16 -- O 20         +19.9% ( 67.6%)     99.7%
 TRAVEL (Ang.)       0.1018         C 15 -- C 16         +17.5% ( 63.4%)      0.7%
 REDUCED MASS        3.4582         C 15 -- C 17         +10.6% ( 49.4%)     57.3%
 EFFECTIVE MASS     13.4408         O 14 -- C 15         +10.4% ( 48.8%)     14.7%
 FORCE CONSTANT      7.2162

 VIBRATION         57   57A           ATOM PAIR      ENERGY CONTRIBUTION    RADIAL
 FREQUENCY          1947.30         C 16 -- O 20         +22.9% ( 72.5%)    100.0%
 TRANSITION DIPOLE   3.1103         C 15 -- C 16         +20.2% ( 68.1%)    100.0%
 TRAVEL (Ang.)       0.0992         C 15 -- O 18         +18.3% ( 64.9%)    100.0%
 REDUCED MASS        3.5194         C 16 -- C 19         +10.6% ( 49.4%)     57.1%
 EFFECTIVE MASS     13.2482         O 14 -- C 16         +10.4% ( 48.9%)     26.0%
 FORCE CONSTANT      7.8630

 VIBRATION         58   58A           ATOM PAIR      ENERGY CONTRIBUTION    RADIAL
 FREQUENCY          2649.12         C 10 -- H 11         +63.6% ( 82.3%)     99.3%
 TRANSITION DIPOLE   0.6707         C 10 -- H 12         +30.7% ( 57.2%)     94.3%
 TRAVEL (Ang.)       0.2225         C 10 -- H 13          +4.1% ( 21.0%)     52.0%
 REDUCED MASS        0.5143         C  1 -- C 10          +0.9% (  9.6%)      0.0%
 EFFECTIVE MASS      1.4407
 FORCE CONSTANT      2.1267

 VIBRATION         59   59A           ATOM PAIR      ENERGY CONTRIBUTION    RADIAL
 FREQUENCY          2655.23         C 22 -- H 23         +66.2% ( 83.9%)     99.4%
 TRANSITION DIPOLE   0.6771         C 22 -- H 24         +28.3% ( 54.8%)     93.7%
 TRAVEL (Ang.)       0.2181         C 22 -- H 25          +4.5% ( 21.9%)     56.0%
 REDUCED MASS        0.5339         C 17 -- C 22          +0.8% (  9.5%)      0.0%
 EFFECTIVE MASS      1.4359
 FORCE CONSTANT      2.2177

 VIBRATION         60   60A           ATOM PAIR      ENERGY CONTRIBUTION    RADIAL
 FREQUENCY          2665.33         C 10 -- H 13         +53.1% ( 75.2%)     98.9%
 TRANSITION DIPOLE   0.5309         C 10 -- H 12         +35.8% ( 61.7%)     95.7%
 TRAVEL (Ang.)       0.2429         C 10 -- H 11          +5.8% ( 24.7%)     62.3%
 REDUCED MASS        0.4287         C  1 -- H  2          +4.1% ( 20.8%)     99.7%
 EFFECTIVE MASS      1.4357
 FORCE CONSTANT      1.7943

 VIBRATION         61   61A           ATOM PAIR      ENERGY CONTRIBUTION    RADIAL
 FREQUENCY          2669.32         C 22 -- H 25         +56.8% ( 77.7%)     99.1%
 TRANSITION DIPOLE   0.5921         C 22 -- H 24         +36.8% ( 62.5%)     95.6%
 TRAVEL (Ang.)       0.2303         C 22 -- H 23          +5.3% ( 23.6%)     58.4%
 REDUCED MASS        0.4762         C 17 -- C 22          +0.9% (  9.7%)      0.0%
 EFFECTIVE MASS      1.4448
 FORCE CONSTANT      1.9992

 VIBRATION         62   62A           ATOM PAIR      ENERGY CONTRIBUTION    RADIAL
 FREQUENCY          2682.00         C  7 -- H  8         +65.5% ( 83.7%)     99.4%
 TRANSITION DIPOLE   0.4469         C  7 -- H  9         +29.1% ( 55.8%)     95.8%
 TRAVEL (Ang.)       0.2155         C  5 -- H  6          +3.1% ( 18.3%)     99.9%
 REDUCED MASS        0.5412         C  5 -- C  7          +1.0% ( 10.5%)      3.7%
 EFFECTIVE MASS      1.4739
 FORCE CONSTANT      2.2936

 VIBRATION         63   63A           ATOM PAIR      ENERGY CONTRIBUTION    RADIAL
 FREQUENCY          2706.69         C  1 -- H  2         +86.5% ( 94.4%)     99.9%
 TRANSITION DIPOLE   0.5906         C  3 -- H  4          +5.2% ( 23.1%)     99.9%
 TRAVEL (Ang.)       0.1829         C 10 -- H 11          +2.4% ( 15.8%)     94.0%
 REDUCED MASS        0.7447         C 10 -- H 12          +1.8% ( 13.5%)     89.9%
 EFFECTIVE MASS      1.3759
 FORCE CONSTANT      3.2146

 VIBRATION         64   64A           ATOM PAIR      ENERGY CONTRIBUTION    RADIAL
 FREQUENCY          2747.14         C 19 -- H 21         +60.1% ( 78.5%)    100.0%
 TRANSITION DIPOLE   0.6078         C  7 -- H  9         +17.3% ( 42.2%)     98.6%
 TRAVEL (Ang.)       0.2467         C  5 -- H  6         +13.1% ( 36.7%)     99.9%
 REDUCED MASS        0.4032         C  7 -- H  8          +4.9% ( 22.4%)     86.4%
 EFFECTIVE MASS      1.3826
 FORCE CONSTANT      1.7926

 VIBRATION         65   65A           ATOM PAIR      ENERGY CONTRIBUTION    RADIAL
 FREQUENCY          2751.22         C  5 -- H  6         +44.8% ( 67.6%)    100.0%
 TRANSITION DIPOLE   0.7699         C  3 -- H  4         +30.6% ( 55.9%)    100.0%
 TRAVEL (Ang.)       0.2783         C 19 -- H 21         +17.7% ( 42.5%)    100.0%
 REDUCED MASS        0.3165         C  1 -- H  2          +2.0% ( 14.2%)     99.1%
 EFFECTIVE MASS      1.3752
 FORCE CONSTANT      1.4114

 VIBRATION         66   66A           ATOM PAIR      ENERGY CONTRIBUTION    RADIAL
 FREQUENCY          2755.81         C  7 -- H  9         +50.8% ( 71.0%)     97.7%
 TRANSITION DIPOLE   0.8513         C  7 -- H  8         +23.2% ( 48.0%)     90.9%
 TRAVEL (Ang.)       0.2660         C 19 -- H 21         +18.1% ( 42.4%)     99.9%
 REDUCED MASS        0.3458         C  5 -- H  6          +3.5% ( 18.7%)     99.4%
 EFFECTIVE MASS      1.3119
 FORCE CONSTANT      1.5474

 VIBRATION         67   67A           ATOM PAIR      ENERGY CONTRIBUTION    RADIAL
 FREQUENCY          2762.23         C  3 -- H  4         +54.0% ( 73.7%)    100.0%
 TRANSITION DIPOLE   1.0843         C  5 -- H  6         +32.0% ( 56.8%)     99.9%
 TRAVEL (Ang.)       0.2539         C 10 -- H 11          +2.2% ( 14.8%)     96.4%
 REDUCED MASS        0.3788         C 10 -- H 12          +2.1% ( 14.6%)     95.7%
 EFFECTIVE MASS      1.3767
 FORCE CONSTANT      1.7028

 VIBRATION         68   68A           ATOM PAIR      ENERGY CONTRIBUTION    RADIAL
 FREQUENCY          2773.65         C 10 -- H 13         +35.1% ( 57.1%)     96.9%
 TRANSITION DIPOLE   0.4827         C 10 -- H 12         +24.9% ( 48.0%)     94.3%
 TRAVEL (Ang.)       0.3223         C 10 -- H 11         +21.3% ( 44.4%)     93.6%
 REDUCED MASS        0.2341         C 22 -- H 25          +4.4% ( 20.1%)     96.1%
 EFFECTIVE MASS      1.1711
 FORCE CONSTANT      1.0611

 VIBRATION         69   69A           ATOM PAIR      ENERGY CONTRIBUTION    RADIAL
 FREQUENCY          2774.42         C 22 -- H 25         +33.3% ( 55.6%)     96.1%
 TRANSITION DIPOLE   0.6759         C 22 -- H 24         +29.0% ( 51.8%)     95.4%
 TRAVEL (Ang.)       0.3119         C 22 -- H 23         +23.1% ( 46.3%)     93.7%
 REDUCED MASS        0.2498         C 10 -- H 13          +3.9% ( 19.1%)     96.7%
 EFFECTIVE MASS      1.1612
 FORCE CONSTANT      1.1327

           FORCE CONSTANT IN CARTESIAN COORDINATES (Millidynes/A)

    ATOM   CHEMICAL       X               Y               Z
   NUMBER   SYMBOL  FORCE CONSTANT  FORCE CONSTANT  FORCE CONSTANT

      1       C        8.284968       11.089647        2.052004
      2       H        4.101387        0.925902        0.579309
      3       C        8.789631       11.036510        3.564502
      4       H        3.956424        0.934144        0.715830
      5       C       10.228689        9.052330        4.096789
      6       H        2.051830        2.993234        0.514046
      7       C       10.646166        5.085187        2.959000
      8       H        2.649292        1.653964        1.130983
      9       H        1.250652        2.906606        1.268987
     10       C        6.683386        7.305109        6.060938
     11       H        1.231560        2.979406        1.146103
     12       H        0.592849        0.722393        3.976120
     13       H        3.949675        0.756096        0.713030
     14       O        6.104548        6.106645        0.998403
     15       C        5.800200       16.769088        3.244790
     16       C       13.438160        8.865759        3.868537
     17       C       10.776101        9.409262        1.926287
     18       O        1.031639       14.037562        1.062976
     19       C        7.656983        8.208556        3.347606
     20       O        9.196017        5.339721        1.627362
     21       H        1.374377        2.657832        1.506957
     22       C        7.638281        6.420447        6.082218
     23       H        0.793687        0.708851        3.819338
     24       H        1.146532        2.815272        1.444391
     25       H        2.242395        2.457976        0.702109

 **********************
 *                    *
 * JOB ENDED NORMALLY *
 *                    *
 **********************



 TOTAL JOB TIME:             1.91 SECONDS

 == MOPAC DONE ==
