6
	Energy:       0.1545190
C         -2.53495        0.99029        0.00000
C         -1.20720        1.08704        0.00000
H         -3.11906        1.47262       -0.77699
H         -3.04298        0.42839        0.77699
H         -0.69917        1.64894       -0.77699
H         -0.62309        0.60471        0.77699
