6
HCOOOH.out	Energy:     -59.7233800
C          0.53505       -0.19559       -0.07404
O          0.68928       -0.94130        0.86030
H          0.84623       -0.32774       -1.11185
O         -0.08470        1.00585        0.03772
O         -0.53234        1.31557        1.35825
H         -0.24162        0.53875        1.91661
