 *******************************************************************************
 ** Site#: 36969        For non-commercial use only    Version 21.051W 64BITS **
 *******************************************************************************
 ** Cite this program as: MOPAC2016, Version: 21.051W, James J. P. Stewart,   **
 ** Stewart Computational Chemistry, web: HTTP://OpenMOPAC.net. Days left: 275**
 *******************************************************************************
 **                                                                           **
 **                                MOPAC2016                                  **
 **                                                                           **
 *******************************************************************************

                              PM7 CALCULATION RESULTS

 *******************************************************************************
 *  CALCULATION DONE:                                Fri May 21 11:10:19 2021  *
 *  PM7        - The PM7 Hamiltonian to be used
 *  1SCF       - DO 1 SCF AND THEN STOP 
 *  T=         - A TIME OF 172800.0 SECONDS REQUESTED
 *  DUMP=N     - RESTART FILE WRITTEN EVERY 7200.0 SECONDS REQUESTED
 *  RELSCF     - DEFAULT SCF CRITERION MULTIPLIED BY 0.0001
 *              (DEFAULT SCF CRITERION = 0.00010)
 *  GRADIENTS  - ALL GRADIENTS TO BE PRINTED
 *******************************************************************************
PM7 1SCF GRADIENTS RELSCF=0.0001
 Title: ASE calculation

   ATOM   CHEMICAL          X               Y               Z
  NUMBER   SYMBOL      (ANGSTROMS)     (ANGSTROMS)     (ANGSTROMS)
 
     1       C         -1.04863570  *  -0.85701741  *  -0.32439313  *
     2       C         -0.67534423  *  -1.99856496  *  -3.12206456  *
     3       H         -1.36315379  *  -1.87857799  *  -0.46910558  *
     4       H         -1.80049066  *  -0.12559925  *  -0.07529349  *
     5       H          2.09396395  *  -1.47665305  *   0.99281809  *
     6       H          2.04231401  *  -1.11493969  *   1.65885493  *
     7       C         -0.29956218  *   0.73698962  *  -2.24713910  *
     8       O         -0.16593271  *  -1.73701401  *  -4.11983190  *
     9       H         -0.13396055  *   0.98883703  *  -3.29575111  *
    10       O         -0.06159796  *   1.42663302  *  -1.28346837  *
    11       O         -0.82606648  *  -0.47860761  *  -2.10573748  *
    12       H         -0.04987033  *  -0.68065098  *   0.04541791  *
 


          CARTESIAN COORDINATES 

    NO.       ATOM           X           Y           Z

     1         C         -1.0486     -0.8570     -0.3244
     2         C         -0.6753     -1.9986     -3.1221
     3         H         -1.3632     -1.8786     -0.4691
     4         H         -1.8005     -0.1256     -0.0753
     5         H          2.0940     -1.4767      0.9928
     6         H          2.0423     -1.1149      1.6589
     7         C         -0.2996      0.7370     -2.2471
     8         O         -0.1659     -1.7370     -4.1198
     9         H         -0.1340      0.9888     -3.2958
    10         O         -0.0616      1.4266     -1.2835
    11         O         -0.8261     -0.4786     -2.1057
    12         H         -0.0499     -0.6807      0.0454

 General Reference for PM7:
 "Optimization of Parameters for Semiempirical Methods VI: More Modifications to the 
 NDDO Approximations and Re-optimization of Parameters", J. J. P. Stewart, J. Mol. Mod., 1:32, 19 (2013)
 https://link.springer.com/article/10.1007/s00894-012-1667-x

           Empirical Formula: C3 H6 O3  =    12 atoms



      MOLECULAR POINT GROUP   :   C1  


      RHF CALCULATION, NO. OF DOUBLY OCCUPIED LEVELS = 18

  SCF CRITERION =    0.1000E-07

 -------------------------------------------------------------------------------
 PM7 1SCF GRADIENTS RELSCF=0.0001
 Title: ASE calculation



     1SCF WAS SPECIFIED, SO BFGS WAS NOT USED                 
     SCF FIELD WAS ACHIEVED                                   


                              PM7 CALCULATION
                                                       MOPAC2016 (Version: 21.051W)
                                                       Fri May 21 11:10:19 2021
                                                       No. of days remaining = 275




          FINAL HEAT OF FORMATION =        -99.40753 KCAL/MOL =    -415.92112 KJ/MOL


          TOTAL ENERGY            =      -1334.09571 EV
          ELECTRONIC ENERGY       =      -4409.73360 EV  POINT GROUP:     C1  
          CORE-CORE REPULSION     =       3075.63789 EV
          COSMO AREA              =        145.54 SQUARE ANGSTROMS
          COSMO VOLUME            =        129.97 CUBIC ANGSTROMS

          GRADIENT NORM           =        133.62504 = 38.57423 PER ATOM
          IONIZATION POTENTIAL    =         10.552003 EV
          HOMO LUMO ENERGIES (EV) =        -10.552 -0.769
          NO. OF FILLED LEVELS    =         18
          MOLECULAR WEIGHT        =         90.0786

          MOLECULAR DIMENSIONS (Angstroms)

            Atom       Atom       Distance
            O     8    H     6     6.21744
            H     3    H     9     3.75484
            H     5    H     4     3.57508


          SCF CALCULATIONS        =          1
 
          WALL-CLOCK TIME         =          0.129 SECONDS
          COMPUTATION TIME        =          0.031 SECONDS

          LARGEST ATOMIC GRADIENTS

          Atom     Label                     Cartesian Gradients           Cartesian Coordinates       |Gradient|
                                           X          Y          Z        X          Y          Z

            11       O                  12.396     -7.801    -98.309   -0.82607   -0.47861   -2.10574     99.394
             1       C                 -10.092    -17.325     81.643   -1.04864   -0.85702   -0.32439     84.069
             2       C                  -2.490     25.163     16.407   -0.67534   -1.99856   -3.12206     30.142
            10       O                   0.248      0.163      0.242   -0.06160    1.42663   -1.28347      0.383
             7       C                  -0.227     -0.025     -0.252   -0.29956    0.73699   -2.24714      0.340
             8       O                   0.070     -0.052      0.237   -0.16593   -1.73701   -4.11983      0.252
             3       H                   0.131     -0.070      0.016   -1.36315   -1.87858   -0.46911      0.149
             9       H                   0.080     -0.124     -0.011   -0.13396    0.98884   -3.29575      0.148
             4       H                  -0.096      0.033      0.032   -1.80049   -0.12560   -0.07529      0.106
            12       H                   0.010      0.073     -0.054   -0.04987   -0.68065    0.04542      0.091



       FINAL  POINT  AND  DERIVATIVES

   PARAMETER     ATOM    TYPE            VALUE        GRADIENT
      1          1  C    CARTESIAN X    -1.048636    -10.092206  KCAL/ANGSTROM
      2          1  C    CARTESIAN Y    -0.857017    -17.325257  KCAL/ANGSTROM
      3          1  C    CARTESIAN Z    -0.324393     81.643029  KCAL/ANGSTROM
      4          2  C    CARTESIAN X    -0.675344     -2.490143  KCAL/ANGSTROM
      5          2  C    CARTESIAN Y    -1.998565     25.163227  KCAL/ANGSTROM
      6          2  C    CARTESIAN Z    -3.122065     16.406705  KCAL/ANGSTROM
      7          3  H    CARTESIAN X    -1.363154      0.130552  KCAL/ANGSTROM
      8          3  H    CARTESIAN Y    -1.878578     -0.069535  KCAL/ANGSTROM
      9          3  H    CARTESIAN Z    -0.469106      0.016090  KCAL/ANGSTROM
     10          4  H    CARTESIAN X    -1.800491     -0.096069  KCAL/ANGSTROM
     11          4  H    CARTESIAN Y    -0.125599      0.033098  KCAL/ANGSTROM
     12          4  H    CARTESIAN Z    -0.075293      0.031756  KCAL/ANGSTROM
     13          5  H    CARTESIAN X     2.093964     -0.024090  KCAL/ANGSTROM
     14          5  H    CARTESIAN Y    -1.476653     -0.006892  KCAL/ANGSTROM
     15          5  H    CARTESIAN Z     0.992818      0.008263  KCAL/ANGSTROM
     16          6  H    CARTESIAN X     2.042314     -0.004157  KCAL/ANGSTROM
     17          6  H    CARTESIAN Y    -1.114940     -0.030122  KCAL/ANGSTROM
     18          6  H    CARTESIAN Z     1.658855      0.041376  KCAL/ANGSTROM
     19          7  C    CARTESIAN X    -0.299562     -0.226873  KCAL/ANGSTROM
     20          7  C    CARTESIAN Y     0.736990     -0.024694  KCAL/ANGSTROM
     21          7  C    CARTESIAN Z    -2.247139     -0.251657  KCAL/ANGSTROM
     22          8  O    CARTESIAN X    -0.165933      0.069893  KCAL/ANGSTROM
     23          8  O    CARTESIAN Y    -1.737014     -0.051547  KCAL/ANGSTROM
     24          8  O    CARTESIAN Z    -4.119832      0.236732  KCAL/ANGSTROM
     25          9  H    CARTESIAN X    -0.133961      0.079843  KCAL/ANGSTROM
     26          9  H    CARTESIAN Y     0.988837     -0.123777  KCAL/ANGSTROM
     27          9  H    CARTESIAN Z    -3.295751     -0.011364  KCAL/ANGSTROM
     28         10  O    CARTESIAN X    -0.061598      0.247725  KCAL/ANGSTROM
     29         10  O    CARTESIAN Y     1.426633      0.163471  KCAL/ANGSTROM
     30         10  O    CARTESIAN Z    -1.283468      0.241689  KCAL/ANGSTROM
     31         11  O    CARTESIAN X    -0.826066     12.395729  KCAL/ANGSTROM
     32         11  O    CARTESIAN Y    -0.478608     -7.801011  KCAL/ANGSTROM
     33         11  O    CARTESIAN Z    -2.105737    -98.308593  KCAL/ANGSTROM
     34         12  H    CARTESIAN X    -0.049870      0.009794  KCAL/ANGSTROM
     35         12  H    CARTESIAN Y    -0.680651      0.073039  KCAL/ANGSTROM
     36         12  H    CARTESIAN Z     0.045418     -0.054026  KCAL/ANGSTROM




   ATOM   CHEMICAL          X               Y               Z
  NUMBER   SYMBOL      (ANGSTROMS)     (ANGSTROMS)     (ANGSTROMS)
 
     1       C         -1.04863570  *  -0.85701741  *  -0.32439313  *
     2       C         -0.67534423  *  -1.99856496  *  -3.12206456  *
     3       H         -1.36315379  *  -1.87857799  *  -0.46910558  *
     4       H         -1.80049066  *  -0.12559925  *  -0.07529349  *
     5       H          2.09396395  *  -1.47665305  *   0.99281809  *
     6       H          2.04231401  *  -1.11493969  *   1.65885493  *
     7       C         -0.29956218  *   0.73698962  *  -2.24713910  *
     8       O         -0.16593271  *  -1.73701401  *  -4.11983190  *
     9       H         -0.13396055  *   0.98883703  *  -3.29575111  *
    10       O         -0.06159796  *   1.42663302  *  -1.28346837  *
    11       O         -0.82606648  *  -0.47860761  *  -2.10573748  *
    12       H         -0.04987033  *  -0.68065098  *   0.04541791  *

                             CARTESIAN COORDINATES

   1    C       -1.048635704    -0.857017411    -0.324393127
   2    C       -0.675344229    -1.998564959    -3.122064563
   3    H       -1.363153787    -1.878577994    -0.469105578
   4    H       -1.800490660    -0.125599253    -0.075293492
   5    H        2.093963950    -1.476653055     0.992818088
   6    H        2.042314011    -1.114939689     1.658854934
   7    C       -0.299562183     0.736989623    -2.247139104
   8    O       -0.165932705    -1.737014011    -4.119831898
   9    H       -0.133960550     0.988837027    -3.295751109
  10    O       -0.061597962     1.426633019    -1.283468365
  11    O       -0.826066480    -0.478607612    -2.105737483
  12    H       -0.049870327    -0.680650975     0.045417908


           Empirical Formula: C3 H6 O3  =    12 atoms



      MOLECULAR POINT GROUP   :   C1  


                  EIGENVALUES  
 -31.62982 -31.13604 -29.22881 -25.56686 -22.02886 -19.55112 -17.29690 -16.16751
 -15.92307 -15.36914 -15.05016 -14.70138 -14.35373 -14.23092 -12.75319 -12.06047
 -11.57217 -10.55200  -0.76923   0.87535   2.29143   2.34883   3.83754   4.48364
   4.75887   4.78537   4.84546   5.26682   6.33224   6.71150


              NET ATOMIC CHARGES AND DIPOLE CONTRIBUTIONS

  ATOM NO.   TYPE          CHARGE      No. of ELECS.   s-Pop       p-Pop       
    1          C           0.010934        3.9891     1.15945     2.82962
    2          C           0.452702        3.5473     1.76570     1.78160
    3          H           0.150060        0.8499     0.84994
    4          H           0.150074        0.8499     0.84993
    5          H          -0.001400        1.0014     1.00140
    6          H           0.002203        0.9978     0.99780
    7          C           0.514688        3.4853     1.14482     2.34049
    8          O          -0.507206        6.5072     1.83790     4.66931
    9          H           0.152422        0.8476     0.84758
   10          O          -0.533461        6.5335     1.87817     4.65530
   11          O          -0.545310        6.5453     1.89810     4.64721
   12          H           0.154294        0.8457     0.84571
 DIPOLE           X         Y         Z       TOTAL
 POINT-CHG.    -1.946    -1.966     3.719     4.635
 HYBRID         0.712     0.647    -1.380     1.682
 SUM           -1.234    -1.319     2.339     2.955


          ATOMIC ORBITAL ELECTRON POPULATIONS

     Atom    s        px        py        pz   
    1  C   1.15945   1.13019   1.09681   0.60261
    2  C   1.76570   0.52690   0.49641   0.75830
    3  H   0.84994
    4  H   0.84993
    5  H   1.00140
    6  H   0.99780
    7  C   1.14482   0.67303   0.74321   0.92425
    8  O   1.83790   1.55301   1.61200   1.50430
    9  H   0.84758
   10  O   1.87817   1.53779   1.61312   1.50439
   11  O   1.89810   1.75123   1.41590   1.48007
   12  H   0.84571

 **********************
 *                    *
 * JOB ENDED NORMALLY *
 *                    *
 **********************



 TOTAL JOB TIME:             0.25 SECONDS

 == MOPAC DONE ==
