 *******************************************************************************
 ** Site#: 36969        For non-commercial use only    Version 21.051W 64BITS **
 *******************************************************************************
 ** Cite this program as: MOPAC2016, Version: 21.051W, James J. P. Stewart,   **
 ** Stewart Computational Chemistry, web: HTTP://OpenMOPAC.net. Days left: 335**
 *******************************************************************************
 **                                                                           **
 **                                MOPAC2016                                  **
 **                                                                           **
 *******************************************************************************

                              PM7 CALCULATION RESULTS

 *******************************************************************************
 *  CALCULATION DONE:                                Mon Mar 22 21:26:18 2021  *
 *  PM7        - The PM7 Hamiltonian to be used
 *  1SCF       - DO 1 SCF AND THEN STOP 
 *  T=         - A TIME OF 172800.0 SECONDS REQUESTED
 *  DUMP=N     - RESTART FILE WRITTEN EVERY 7200.0 SECONDS REQUESTED
 *  RELSCF     - DEFAULT SCF CRITERION MULTIPLIED BY 0.0001
 *              (DEFAULT SCF CRITERION = 0.00010)
 *  GRADIENTS  - ALL GRADIENTS TO BE PRINTED
 *******************************************************************************
PM7 1SCF GRADIENTS RELSCF=0.0001
 Title: ASE calculation

   ATOM   CHEMICAL          X               Y               Z
  NUMBER   SYMBOL      (ANGSTROMS)     (ANGSTROMS)     (ANGSTROMS)
 
     1       C         -0.70745929  *  -2.21911992  *  -0.82563711  *
     2       C         -1.01754866  *  -1.00002688  *  -1.40278603  *
     3       C         -0.76737812  *   0.14593815  *  -0.64160854  *
     4       C         -0.21344108  *   0.08040683  *   0.67496183  *
     5       C          0.07787884  *  -1.16735318  *   1.22882328  *
     6       C         -0.16921386  *  -2.30207659  *   0.47490921  *
     7       C         -0.01403391  *   1.44602326  *   1.12503665  *
     8       C         -0.54222403  *   2.26489838  *   0.11506145  *
     9       N         -0.96148017  *   1.49707066  *  -0.95842550  *
    10       H         -0.88268424  *  -3.14076785  *  -1.38150493  *
    11       H         -1.43215050  *  -0.93268311  *  -2.40336032  *
    12       H          0.49621897  *  -1.23540117  *   2.22933948  *
    13       H          0.06517725  *  -3.28391499  *   0.88214810  *
    14       H          0.01147393  *   1.72988922  *   2.16892945  *
    15       H         -0.61868482  *   3.34169176  *   0.09992420  *
    16       H         -1.30144021  *   1.83616869  *  -1.83005677  *
    17       C          2.81868063  *   2.18182726  *  -1.13609140  *
    18       C          2.49744365  *   1.00259825  *  -0.19173828  *
    19       C          1.97366521  *   1.66490248  *   1.09121185  *
    20       C          2.19261354  *   3.01183292  *   1.05349435  *
    21       C          2.64911593  *   3.42967731  *  -0.26956713  *
    22       O          2.87104045  *   4.54751267  *  -0.65913928  *
    23       C          3.74423499  *   0.18507396  *   0.14869030  *
    24       H          2.14208419  *   2.21962535  *  -2.00307259  *
    25       H          3.83817295  *   2.12997475  *  -1.54960967  *
    26       H          1.74624532  *   0.33323191  *  -0.65822459  *
    27       H          1.97590355  *   1.05951413  *   1.99560191  *
    28       H          2.05700277  *   3.72000969  *   1.84414462  *
    29       H          4.54145937  *   0.82548932  *   0.54559804  *
    30       H          4.13482429  *  -0.32632931  *  -0.73900852  *
    31       H          3.53190005  *  -0.58244317  *   0.90145963  *
 


          CARTESIAN COORDINATES 

    NO.       ATOM           X           Y           Z

     1         C         -0.7075     -2.2191     -0.8256
     2         C         -1.0175     -1.0000     -1.4028
     3         C         -0.7674      0.1459     -0.6416
     4         C         -0.2134      0.0804      0.6750
     5         C          0.0779     -1.1674      1.2288
     6         C         -0.1692     -2.3021      0.4749
     7         C         -0.0140      1.4460      1.1250
     8         C         -0.5422      2.2649      0.1151
     9         N         -0.9615      1.4971     -0.9584
    10         H         -0.8827     -3.1408     -1.3815
    11         H         -1.4322     -0.9327     -2.4034
    12         H          0.4962     -1.2354      2.2293
    13         H          0.0652     -3.2839      0.8821
    14         H          0.0115      1.7299      2.1689
    15         H         -0.6187      3.3417      0.0999
    16         H         -1.3014      1.8362     -1.8301
    17         C          2.8187      2.1818     -1.1361
    18         C          2.4974      1.0026     -0.1917
    19         C          1.9737      1.6649      1.0912
    20         C          2.1926      3.0118      1.0535
    21         C          2.6491      3.4297     -0.2696
    22         O          2.8710      4.5475     -0.6591
    23         C          3.7442      0.1851      0.1487
    24         H          2.1421      2.2196     -2.0031
    25         H          3.8382      2.1300     -1.5496
    26         H          1.7462      0.3332     -0.6582
    27         H          1.9759      1.0595      1.9956
    28         H          2.0570      3.7200      1.8441
    29         H          4.5415      0.8255      0.5456
    30         H          4.1348     -0.3263     -0.7390
    31         H          3.5319     -0.5824      0.9015

 General Reference for PM7:
 "Optimization of Parameters for Semiempirical Methods VI: More Modifications to the 
 NDDO Approximations and Re-optimization of Parameters", J. J. P. Stewart, J. Mol. Mod., 1:32, 19 (2013)
 https://link.springer.com/article/10.1007/s00894-012-1667-x

           Empirical Formula: C14 H15 N O  =    31 atoms



      MOLECULAR POINT GROUP   :   C1  


      RHF CALCULATION, NO. OF DOUBLY OCCUPIED LEVELS = 41

  SCF CRITERION =    0.1000E-07

 -------------------------------------------------------------------------------
 PM7 1SCF GRADIENTS RELSCF=0.0001
 Title: ASE calculation



     1SCF WAS SPECIFIED, SO BFGS WAS NOT USED                 
     SCF FIELD WAS ACHIEVED                                   


                              PM7 CALCULATION
                                                       MOPAC2016 (Version: 21.051W)
                                                       Mon Mar 22 21:26:18 2021
                                                       No. of days remaining = 335




          FINAL HEAT OF FORMATION =         31.72031 KCAL/MOL =     132.71776 KJ/MOL


          TOTAL ENERGY            =      -2401.75859 EV
          ELECTRONIC ENERGY       =     -16149.87032 EV  POINT GROUP:     C1  
          CORE-CORE REPULSION     =      13748.11173 EV
          COSMO AREA              =        235.65 SQUARE ANGSTROMS
          COSMO VOLUME            =        272.41 CUBIC ANGSTROMS

          GRADIENT NORM           =         90.82779 = 16.31315 PER ATOM
          IONIZATION POTENTIAL    =          8.231743 EV
          HOMO LUMO ENERGIES (EV) =         -8.232 -0.766
          NO. OF FILLED LEVELS    =         41
          MOLECULAR WEIGHT        =        213.2786

          MOLECULAR DIMENSIONS (Angstroms)

            Atom       Atom       Distance
            O    22    H    10     8.58615
            H    29    H    16     6.11431
            H    14    H    25     4.79937


          SCF CALCULATIONS        =          1
 
          WALL-CLOCK TIME         =          0.062 SECONDS
          COMPUTATION TIME        =          0.250 SECONDS

          LARGEST ATOMIC GRADIENTS

          Atom     Label                     Cartesian Gradients           Cartesian Coordinates       |Gradient|
                                           X          Y          Z        X          Y          Z

             7       C                  64.110      6.677     -1.025   -0.01403    1.44602    1.12504     64.465
            19       C                 -63.532     -6.833      0.937    1.97367    1.66490    1.09121     63.905
            15       H                  -1.054     -0.007      0.191   -0.61868    3.34169    0.09992      1.072
            27       H                  -0.021      0.885     -0.310    1.97590    1.05951    1.99560      0.938
            29       H                  -0.768      0.305     -0.122    4.54146    0.82549    0.54560      0.835
             1       C                   0.728      0.300     -0.179   -0.70746   -2.21912   -0.82564      0.807
             6       C                  -0.558      0.026      0.582   -0.16921   -2.30208    0.47491      0.807
             8       C                  -0.423      0.055      0.658   -0.54222    2.26490    0.11506      0.784
            21       C                   0.492     -0.512     -0.030    2.64912    3.42968   -0.26957      0.710
             5       C                   0.466      0.198     -0.478    0.07788   -1.16735    1.22882      0.696



       FINAL  POINT  AND  DERIVATIVES

   PARAMETER     ATOM    TYPE            VALUE        GRADIENT
      1          1  C    CARTESIAN X    -0.707459      0.727992  KCAL/ANGSTROM
      2          1  C    CARTESIAN Y    -2.219120      0.299670  KCAL/ANGSTROM
      3          1  C    CARTESIAN Z    -0.825637     -0.179179  KCAL/ANGSTROM
      4          2  C    CARTESIAN X    -1.017549     -0.032292  KCAL/ANGSTROM
      5          2  C    CARTESIAN Y    -1.000027      0.134965  KCAL/ANGSTROM
      6          2  C    CARTESIAN Z    -1.402786      0.201464  KCAL/ANGSTROM
      7          3  C    CARTESIAN X    -0.767378     -0.302546  KCAL/ANGSTROM
      8          3  C    CARTESIAN Y     0.145938      0.264758  KCAL/ANGSTROM
      9          3  C    CARTESIAN Z    -0.641609     -0.028642  KCAL/ANGSTROM
     10          4  C    CARTESIAN X    -0.213441     -0.323503  KCAL/ANGSTROM
     11          4  C    CARTESIAN Y     0.080407     -0.335701  KCAL/ANGSTROM
     12          4  C    CARTESIAN Z     0.674962     -0.079221  KCAL/ANGSTROM
     13          5  C    CARTESIAN X     0.077879      0.465759  KCAL/ANGSTROM
     14          5  C    CARTESIAN Y    -1.167353      0.198158  KCAL/ANGSTROM
     15          5  C    CARTESIAN Z     1.228823     -0.477685  KCAL/ANGSTROM
     16          6  C    CARTESIAN X    -0.169214     -0.557990  KCAL/ANGSTROM
     17          6  C    CARTESIAN Y    -2.302077      0.026112  KCAL/ANGSTROM
     18          6  C    CARTESIAN Z     0.474909      0.582322  KCAL/ANGSTROM
     19          7  C    CARTESIAN X    -0.014034     64.109939  KCAL/ANGSTROM
     20          7  C    CARTESIAN Y     1.446023      6.677169  KCAL/ANGSTROM
     21          7  C    CARTESIAN Z     1.125037     -1.025000  KCAL/ANGSTROM
     22          8  C    CARTESIAN X    -0.542224     -0.423402  KCAL/ANGSTROM
     23          8  C    CARTESIAN Y     2.264898      0.054776  KCAL/ANGSTROM
     24          8  C    CARTESIAN Z     0.115061      0.657976  KCAL/ANGSTROM
     25          9  N    CARTESIAN X    -0.961480      0.099408  KCAL/ANGSTROM
     26          9  N    CARTESIAN Y     1.497071      0.426477  KCAL/ANGSTROM
     27          9  N    CARTESIAN Z    -0.958426      0.227996  KCAL/ANGSTROM
     28         10  H    CARTESIAN X    -0.882684     -0.249005  KCAL/ANGSTROM
     29         10  H    CARTESIAN Y    -3.140768     -0.418438  KCAL/ANGSTROM
     30         10  H    CARTESIAN Z    -1.381505     -0.275014  KCAL/ANGSTROM
     31         11  H    CARTESIAN X    -1.432151     -0.098872  KCAL/ANGSTROM
     32         11  H    CARTESIAN Y    -0.932683      0.090566  KCAL/ANGSTROM
     33         11  H    CARTESIAN Z    -2.403360     -0.374133  KCAL/ANGSTROM
     34         12  H    CARTESIAN X     0.496219     -0.092538  KCAL/ANGSTROM
     35         12  H    CARTESIAN Y    -1.235401      0.198640  KCAL/ANGSTROM
     36         12  H    CARTESIAN Z     2.229339     -0.469005  KCAL/ANGSTROM
     37         13  H    CARTESIAN X     0.065177      0.576450  KCAL/ANGSTROM
     38         13  H    CARTESIAN Y    -3.283915      0.252424  KCAL/ANGSTROM
     39         13  H    CARTESIAN Z     0.882148     -0.248070  KCAL/ANGSTROM
     40         14  H    CARTESIAN X     0.011474     -0.055135  KCAL/ANGSTROM
     41         14  H    CARTESIAN Y     1.729889     -0.144245  KCAL/ANGSTROM
     42         14  H    CARTESIAN Z     2.168929      0.003672  KCAL/ANGSTROM
     43         15  H    CARTESIAN X    -0.618685     -1.054453  KCAL/ANGSTROM
     44         15  H    CARTESIAN Y     3.341692     -0.007236  KCAL/ANGSTROM
     45         15  H    CARTESIAN Z     0.099924      0.191174  KCAL/ANGSTROM
     46         16  H    CARTESIAN X    -1.301440      0.328773  KCAL/ANGSTROM
     47         16  H    CARTESIAN Y     1.836169     -0.241726  KCAL/ANGSTROM
     48         16  H    CARTESIAN Z    -1.830057     -0.072618  KCAL/ANGSTROM
     49         17  C    CARTESIAN X     2.818681     -0.101876  KCAL/ANGSTROM
     50         17  C    CARTESIAN Y     2.181827     -0.578905  KCAL/ANGSTROM
     51         17  C    CARTESIAN Z    -1.136091     -0.142063  KCAL/ANGSTROM
     52         18  C    CARTESIAN X     2.497444      0.090045  KCAL/ANGSTROM
     53         18  C    CARTESIAN Y     1.002598     -0.326711  KCAL/ANGSTROM
     54         18  C    CARTESIAN Z    -0.191738      0.461913  KCAL/ANGSTROM
     55         19  C    CARTESIAN X     1.973665    -63.531747  KCAL/ANGSTROM
     56         19  C    CARTESIAN Y     1.664902     -6.833221  KCAL/ANGSTROM
     57         19  C    CARTESIAN Z     1.091212      0.936695  KCAL/ANGSTROM
     58         20  C    CARTESIAN X     2.192614      0.103786  KCAL/ANGSTROM
     59         20  C    CARTESIAN Y     3.011833      0.258678  KCAL/ANGSTROM
     60         20  C    CARTESIAN Z     1.053494     -0.060366  KCAL/ANGSTROM
     61         21  C    CARTESIAN X     2.649116      0.491572  KCAL/ANGSTROM
     62         21  C    CARTESIAN Y     3.429677     -0.511861  KCAL/ANGSTROM
     63         21  C    CARTESIAN Z    -0.269567     -0.029691  KCAL/ANGSTROM
     64         22  O    CARTESIAN X     2.871040      0.286433  KCAL/ANGSTROM
     65         22  O    CARTESIAN Y     4.547513     -0.192581  KCAL/ANGSTROM
     66         22  O    CARTESIAN Z    -0.659139      0.171707  KCAL/ANGSTROM
     67         23  C    CARTESIAN X     3.744235     -0.046567  KCAL/ANGSTROM
     68         23  C    CARTESIAN Y     0.185074     -0.432428  KCAL/ANGSTROM
     69         23  C    CARTESIAN Z     0.148690     -0.120082  KCAL/ANGSTROM
     70         24  H    CARTESIAN X     2.142084     -0.302849  KCAL/ANGSTROM
     71         24  H    CARTESIAN Y     2.219625     -0.114020  KCAL/ANGSTROM
     72         24  H    CARTESIAN Z    -2.003073     -0.159824  KCAL/ANGSTROM
     73         25  H    CARTESIAN X     3.838173      0.073874  KCAL/ANGSTROM
     74         25  H    CARTESIAN Y     2.129975     -0.325393  KCAL/ANGSTROM
     75         25  H    CARTESIAN Z    -1.549610     -0.049364  KCAL/ANGSTROM
     76         26  H    CARTESIAN X     1.746245      0.358360  KCAL/ANGSTROM
     77         26  H    CARTESIAN Y     0.333232      0.300446  KCAL/ANGSTROM
     78         26  H    CARTESIAN Z    -0.658225      0.348381  KCAL/ANGSTROM
     79         27  H    CARTESIAN X     1.975904     -0.020670  KCAL/ANGSTROM
     80         27  H    CARTESIAN Y     1.059514      0.885070  KCAL/ANGSTROM
     81         27  H    CARTESIAN Z     1.995602     -0.310323  KCAL/ANGSTROM
     82         28  H    CARTESIAN X     2.057003     -0.098890  KCAL/ANGSTROM
     83         28  H    CARTESIAN Y     3.720010      0.140540  KCAL/ANGSTROM
     84         28  H    CARTESIAN Z     1.844145      0.163187  KCAL/ANGSTROM
     85         29  H    CARTESIAN X     4.541459     -0.767975  KCAL/ANGSTROM
     86         29  H    CARTESIAN Y     0.825489      0.305209  KCAL/ANGSTROM
     87         29  H    CARTESIAN Z     0.545598     -0.122329  KCAL/ANGSTROM
     88         30  H    CARTESIAN X     4.134824      0.003589  KCAL/ANGSTROM
     89         30  H    CARTESIAN Y    -0.326329     -0.307685  KCAL/ANGSTROM
     90         30  H    CARTESIAN Z    -0.739009     -0.258764  KCAL/ANGSTROM
     91         31  H    CARTESIAN X     3.531900      0.344335  KCAL/ANGSTROM
     92         31  H    CARTESIAN Y    -0.582443      0.256490  KCAL/ANGSTROM
     93         31  H    CARTESIAN Z     0.901460      0.534882  KCAL/ANGSTROM




   ATOM   CHEMICAL          X               Y               Z
  NUMBER   SYMBOL      (ANGSTROMS)     (ANGSTROMS)     (ANGSTROMS)
 
     1       C         -0.70745929  *  -2.21911992  *  -0.82563711  *
     2       C         -1.01754866  *  -1.00002688  *  -1.40278603  *
     3       C         -0.76737812  *   0.14593815  *  -0.64160854  *
     4       C         -0.21344108  *   0.08040683  *   0.67496183  *
     5       C          0.07787884  *  -1.16735318  *   1.22882328  *
     6       C         -0.16921386  *  -2.30207659  *   0.47490921  *
     7       C         -0.01403391  *   1.44602326  *   1.12503665  *
     8       C         -0.54222403  *   2.26489838  *   0.11506145  *
     9       N         -0.96148017  *   1.49707066  *  -0.95842550  *
    10       H         -0.88268424  *  -3.14076785  *  -1.38150493  *
    11       H         -1.43215050  *  -0.93268311  *  -2.40336032  *
    12       H          0.49621897  *  -1.23540117  *   2.22933948  *
    13       H          0.06517725  *  -3.28391499  *   0.88214810  *
    14       H          0.01147393  *   1.72988922  *   2.16892945  *
    15       H         -0.61868482  *   3.34169176  *   0.09992420  *
    16       H         -1.30144021  *   1.83616869  *  -1.83005677  *
    17       C          2.81868063  *   2.18182726  *  -1.13609140  *
    18       C          2.49744365  *   1.00259825  *  -0.19173828  *
    19       C          1.97366521  *   1.66490248  *   1.09121185  *
    20       C          2.19261354  *   3.01183292  *   1.05349435  *
    21       C          2.64911593  *   3.42967731  *  -0.26956713  *
    22       O          2.87104045  *   4.54751267  *  -0.65913928  *
    23       C          3.74423499  *   0.18507396  *   0.14869030  *
    24       H          2.14208419  *   2.21962535  *  -2.00307259  *
    25       H          3.83817295  *   2.12997475  *  -1.54960967  *
    26       H          1.74624532  *   0.33323191  *  -0.65822459  *
    27       H          1.97590355  *   1.05951413  *   1.99560191  *
    28       H          2.05700277  *   3.72000969  *   1.84414462  *
    29       H          4.54145937  *   0.82548932  *   0.54559804  *
    30       H          4.13482429  *  -0.32632931  *  -0.73900852  *
    31       H          3.53190005  *  -0.58244317  *   0.90145963  *

                             CARTESIAN COORDINATES

   1    C       -0.707459289    -2.219119921    -0.825637107
   2    C       -1.017548657    -1.000026877    -1.402786031
   3    C       -0.767378123     0.145938153    -0.641608538
   4    C       -0.213441084     0.080406830     0.674961830
   5    C        0.077878838    -1.167353175     1.228823282
   6    C       -0.169213864    -2.302076586     0.474909211
   7    C       -0.014033907     1.446023258     1.125036653
   8    C       -0.542224029     2.264898376     0.115061445
   9    N       -0.961480166     1.497070664    -0.958425502
  10    H       -0.882684243    -3.140767852    -1.381504926
  11    H       -1.432150502    -0.932683111    -2.403360316
  12    H        0.496218969    -1.235401170     2.229339476
  13    H        0.065177247    -3.283914987     0.882148101
  14    H        0.011473933     1.729889222     2.168929449
  15    H       -0.618684824     3.341691761     0.099924199
  16    H       -1.301440211     1.836168687    -1.830056774
  17    C        2.818680632     2.181827263    -1.136091401
  18    C        2.497443652     1.002598253    -0.191738285
  19    C        1.973665207     1.664902479     1.091211846
  20    C        2.192613542     3.011832918     1.053494348
  21    C        2.649115932     3.429677307    -0.269567131
  22    O        2.871040454     4.547512665    -0.659139284
  23    C        3.744234988     0.185073958     0.148690303
  24    H        2.142084186     2.219625347    -2.003072593
  25    H        3.838172954     2.129974746    -1.549609672
  26    H        1.746245319     0.333231907    -0.658224595
  27    H        1.975903554     1.059514126     1.995601914
  28    H        2.057002765     3.720009687     1.844144624
  29    H        4.541459369     0.825489324     0.545598041
  30    H        4.134824287    -0.326329312    -0.739008524
  31    H        3.531900052    -0.582443169     0.901459630


           Empirical Formula: C14 H15 N O  =    31 atoms



      MOLECULAR POINT GROUP   :   C1  


                  EIGENVALUES  
 -38.16806 -31.07549 -30.52481 -29.76967 -28.06180 -26.01243 -25.90916 -24.96333
 -24.38514 -22.04129 -21.82363 -20.85022 -20.61053 -19.05986 -18.67965 -18.14175
 -16.67772 -16.52593 -16.36398 -15.99177 -15.25493 -15.08869 -15.00988 -14.45464
 -14.29341 -13.89562 -13.77142 -13.69426 -13.10727 -12.96816 -12.75647 -12.73024
 -12.39981 -12.19219 -12.04331 -11.75174 -11.24941 -10.00730  -9.53672  -9.44140
  -8.23174  -0.76595  -0.09259   0.19926   1.37516   1.74390   2.19561   2.40480
   3.48240   3.54342   3.63310   3.68467   4.19710   4.22875   4.32416   4.49545
   4.61265   4.73040   4.81829   4.85653   5.07353   5.19074   5.48984   5.55070
   5.61724   5.62704   5.66705   5.71723   5.79813   5.85373   5.89815   5.96403
   6.02418   6.09858   6.11552   6.33724   6.55241   6.84538   6.90746


              NET ATOMIC CHARGES AND DIPOLE CONTRIBUTIONS

  ATOM NO.   TYPE          CHARGE      No. of ELECS.   s-Pop       p-Pop       
    1          C          -0.122577        4.1226     1.08263     3.03994
    2          C          -0.200406        4.2004     1.07373     3.12667
    3          C           0.078357        3.9216     1.05738     2.86427
    4          C          -0.053384        4.0534     1.06340     2.98999
    5          C          -0.127677        4.1277     1.07955     3.04813
    6          C          -0.173743        4.1737     1.08083     3.09291
    7          C          -0.284119        4.2841     1.08533     3.19879
    8          C           0.034964        3.9650     1.09936     2.86568
    9          N          -0.360538        5.3605     1.51184     3.84870
   10          H           0.153443        0.8466     0.84656
   11          H           0.160042        0.8400     0.83996
   12          H           0.156008        0.8440     0.84399
   13          H           0.154117        0.8459     0.84588
   14          H           0.183788        0.8162     0.81621
   15          H           0.181386        0.8186     0.81861
   16          H           0.318420        0.6816     0.68158
   17          C          -0.405096        4.4051     1.07878     3.32632
   18          C          -0.116527        4.1165     1.06706     3.04946
   19          C           0.057120        3.9429     1.11969     2.82319
   20          C          -0.454303        4.4543     1.08588     3.36842
   21          C           0.507580        3.4924     1.11140     2.38102
   22          O          -0.493041        6.4930     1.87556     4.61748
   23          C          -0.448450        4.4485     1.05518     3.39327
   24          H           0.158745        0.8413     0.84125
   25          H           0.172360        0.8276     0.82764
   26          H           0.153807        0.8462     0.84619
   27          H           0.145749        0.8543     0.85425
   28          H           0.173651        0.8263     0.82635
   29          H           0.155969        0.8440     0.84403
   30          H           0.149380        0.8506     0.85062
   31          H           0.144974        0.8550     0.85503
 DIPOLE           X         Y         Z       TOTAL
 POINT-CHG.    -2.505    -4.590     0.123     5.230
 HYBRID        -0.386     0.369    -0.887     1.035
 SUM           -2.891    -4.221    -0.763     5.173


          ATOMIC ORBITAL ELECTRON POPULATIONS

     Atom    s        px        py        pz   
    1  C   1.08263   0.98861   1.04362   1.00771
    2  C   1.07373   1.07065   0.98040   1.07563
    3  C   1.05738   1.03892   0.82956   0.99579
    4  C   1.06340   1.03034   0.97504   0.98461
    5  C   1.07955   1.00528   0.97730   1.06555
    6  C   1.08083   1.02721   1.06359   1.00211
    7  C   1.08533   1.13894   0.97877   1.08107
    8  C   1.09936   0.95794   1.02089   0.88685
    9  N   1.51184   1.51510   1.12387   1.20973
   10  H   0.84656
   11  H   0.83996
   12  H   0.84399
   13  H   0.84588
   14  H   0.81621
   15  H   0.81861
   16  H   0.68158
   17  C   1.07878   1.17903   1.05038   1.09690
   18  C   1.06706   1.03670   1.01735   0.99541
   19  C   1.11969   0.78163   1.01281   1.02875
   20  C   1.08588   1.22149   1.04694   1.09999
   21  C   1.11140   0.68499   0.82809   0.86793
   22  O   1.87556   1.47811   1.35205   1.78732
   23  C   1.05518   1.08662   1.13516   1.17148
   24  H   0.84125
   25  H   0.82764
   26  H   0.84619
   27  H   0.85425
   28  H   0.82635
   29  H   0.84403
   30  H   0.85062
   31  H   0.85503

 **********************
 *                    *
 * JOB ENDED NORMALLY *
 *                    *
 **********************



 TOTAL JOB TIME:             0.08 SECONDS

 == MOPAC DONE ==
