 Entering Gaussian System, Link 0=g09
 Input=temp.com
 Output=temp.log
 Initial command:
 C:\G09W\l1.exe .\gxx.inp temp.log /scrdir=.\
 Entering Link 1 = C:\G09W\l1.exe PID=      5028.
  
 Copyright (c) 1988,1990,1992,1993,1995,1998,2003,2009, Gaussian, Inc.
                  All Rights Reserved.
  
 This is part of the Gaussian(R) 09 program.  It is based on
 the Gaussian(R) 03 system (copyright 2003, Gaussian, Inc.),
 the Gaussian(R) 98 system (copyright 1998, Gaussian, Inc.),
 the Gaussian(R) 94 system (copyright 1995, Gaussian, Inc.),
 the Gaussian 92(TM) system (copyright 1992, Gaussian, Inc.),
 the Gaussian 90(TM) system (copyright 1990, Gaussian, Inc.),
 the Gaussian 88(TM) system (copyright 1988, Gaussian, Inc.),
 the Gaussian 86(TM) system (copyright 1986, Carnegie Mellon
 University), and the Gaussian 82(TM) system (copyright 1983,
 Carnegie Mellon University). Gaussian is a federally registered
 trademark of Gaussian, Inc.
  
 This software contains proprietary and confidential information,
 including trade secrets, belonging to Gaussian, Inc.
  
 This software is provided under written license and may be
 used, copied, transmitted, or stored only in accord with that
 written license.
  
 The following legend is applicable only to US Government
 contracts under FAR:
  
                    RESTRICTED RIGHTS LEGEND
  
 Use, reproduction and disclosure by the US Government is
 subject to restrictions as set forth in subparagraphs (a)
 and (c) of the Commercial Computer Software - Restricted
 Rights clause in FAR 52.227-19.
  
 Gaussian, Inc.
 340 Quinnipiac St., Bldg. 40, Wallingford CT 06492
  
  
 ---------------------------------------------------------------
 Warning -- This program may not be used in any manner that
 competes with the business of Gaussian, Inc. or will provide
 assistance to any competitor of Gaussian, Inc.  The licensee
 of this program is prohibited from giving any competitor of
 Gaussian, Inc. access to this program.  By using this program,
 the user acknowledges that Gaussian, Inc. is engaged in the
 business of creating and licensing software in the field of
 computational chemistry and represents and warrants to the
 licensee that it is not a competitor of Gaussian, Inc. and that
 it will not use this program in any manner prohibited above.
 ---------------------------------------------------------------
  

 Cite this work as:
 Gaussian 09, Revision A.02,
 M. J. Frisch, G. W. Trucks, H. B. Schlegel, G. E. Scuseria, 
 M. A. Robb, J. R. Cheeseman, G. Scalmani, V. Barone, B. Mennucci, 
 G. A. Petersson, H. Nakatsuji, M. Caricato, X. Li, H. P. Hratchian, 
 A. F. Izmaylov, J. Bloino, G. Zheng, J. L. Sonnenberg, M. Hada, 
 M. Ehara, K. Toyota, R. Fukuda, J. Hasegawa, M. Ishida, T. Nakajima, 
 Y. Honda, O. Kitao, H. Nakai, T. Vreven, J. A. Montgomery, Jr., 
 J. E. Peralta, F. Ogliaro, M. Bearpark, J. J. Heyd, E. Brothers, 
 K. N. Kudin, V. N. Staroverov, R. Kobayashi, J. Normand, 
 K. Raghavachari, A. Rendell, J. C. Burant, S. S. Iyengar, J. Tomasi, 
 M. Cossi, N. Rega, J. M. Millam, M. Klene, J. E. Knox, J. B. Cross, 
 V. Bakken, C. Adamo, J. Jaramillo, R. Gomperts, R. E. Stratmann, 
 O. Yazyev, A. J. Austin, R. Cammi, C. Pomelli, J. W. Ochterski, 
 R. L. Martin, K. Morokuma, V. G. Zakrzewski, G. A. Voth, 
 P. Salvador, J. J. Dannenberg, S. Dapprich, A. D. Daniels, 
 O. Farkas, J. B. Foresman, J. V. Ortiz, J. Cioslowski, 
 and D. J. Fox, Gaussian, Inc., Wallingford CT, 2009.
 
 ******************************************
 Gaussian 09:  IA32W-G09RevA.02 11-Jun-2009
                22-Mar-2021 
 ******************************************
 ------------
 #P PM6 force
 ------------
 1/10=7,30=1,38=1/1,3;
 2/12=2,17=6,18=5,40=1/2;
 3/5=2,16=1,25=1,41=3900000,71=1/1,2,3;
 4/35=1/1;
 5/5=2,35=1,38=5/2;
 6/7=2,8=2,9=2,10=2,28=1/1;
 7/29=1/1,2,3,16;
 1/10=7,30=1/3;
 99//99;
 Leave Link    1 at Mon Mar 22 18:13:17 2021, MaxMem=          0 cpu:       0.0
 (Enter C:\G09W\l101.exe)
 ------------------------------
 Gaussian input prepared by ASE
 ------------------------------
 Symbolic Z-matrix:
 Charge =  0 Multiplicity = 1
 C                    -0.7609   -2.2514   -0.82821 
 C                    -1.06637  -1.02928  -1.40703 
 C                    -0.7856    0.12268  -0.65125 
 C                    -0.2121    0.05673   0.66214 
 C                     0.08279  -1.20023   1.21479 
 C                    -0.19226  -2.33575   0.46774 
 C                     0.00276   1.4246    1.11486 
 C                    -0.53781   2.25366   0.11802 
 N                    -0.97126   1.4882   -0.96494 
 H                    -0.95417  -3.17424  -1.37733 
 H                    -1.49883  -0.95943  -2.40116 
 H                     0.52305  -1.26909   2.20618 
 H                     0.0376   -3.31942   0.87369 
 H                     0.03685   1.69737   2.16375 
 H                    -0.59512   3.33316   0.11486 
 H                    -1.32241   1.83863  -1.83661 
 C                     2.85096   2.20772  -1.12775 
 C                     2.52664   1.0269   -0.1844 
 C                     1.98398   1.69721   1.09353 
 C                     2.19402   3.04663   1.04987 
 C                     2.66713   3.46848  -0.27354 
 O                     2.88941   4.59087  -0.6683 
 C                     3.7602    0.19324   0.16504 
 H                     2.18204   2.23956  -2.00175 
 H                     3.87472   2.16019  -1.53373 
 H                     1.77391   0.36329  -0.66059 
 H                     1.97336   1.10461   2.00733 
 H                     2.02413   3.76395   1.82987 
 H                     4.56928   0.81842   0.56174 
 H                     4.14852  -0.32729  -0.71817 
 H                     3.53287  -0.56672   0.92086 
 
 NAtoms=     31 NQM=     31 NQMF=      0 NMic=      0 NMicF=      0 NTot=     31.
                    Isotopes and Nuclear Properties:
 (Nuclear quadrupole moments (NQMom) in fm**2, nuclear magnetic moments (NMagM)
  in nuclear magnetons)

  Atom         1           2           3           4           5           6           7           8           9          10
 IAtWgt=          12          12          12          12          12          12          12          12          14           1
 AtmWgt=  12.0000000  12.0000000  12.0000000  12.0000000  12.0000000  12.0000000  12.0000000  12.0000000  14.0030740   1.0078250
 NucSpn=           0           0           0           0           0           0           0           0           2           1
 AtZEff=   0.0000000   0.0000000   0.0000000   0.0000000   0.0000000   0.0000000   0.0000000   0.0000000   0.0000000   0.0000000
 NQMom=    0.0000000   0.0000000   0.0000000   0.0000000   0.0000000   0.0000000   0.0000000   0.0000000   2.0440000   0.0000000
 NMagM=    0.0000000   0.0000000   0.0000000   0.0000000   0.0000000   0.0000000   0.0000000   0.0000000   0.4037610   2.7928460

  Atom        11          12          13          14          15          16          17          18          19          20
 IAtWgt=           1           1           1           1           1           1          12          12          12          12
 AtmWgt=   1.0078250   1.0078250   1.0078250   1.0078250   1.0078250   1.0078250  12.0000000  12.0000000  12.0000000  12.0000000
 NucSpn=           1           1           1           1           1           1           0           0           0           0
 AtZEff=   0.0000000   0.0000000   0.0000000   0.0000000   0.0000000   0.0000000   0.0000000   0.0000000   0.0000000   0.0000000
 NQMom=    0.0000000   0.0000000   0.0000000   0.0000000   0.0000000   0.0000000   0.0000000   0.0000000   0.0000000   0.0000000
 NMagM=    2.7928460   2.7928460   2.7928460   2.7928460   2.7928460   2.7928460   0.0000000   0.0000000   0.0000000   0.0000000

  Atom        21          22          23          24          25          26          27          28          29          30
 IAtWgt=          12          16          12           1           1           1           1           1           1           1
 AtmWgt=  12.0000000  15.9949146  12.0000000   1.0078250   1.0078250   1.0078250   1.0078250   1.0078250   1.0078250   1.0078250
 NucSpn=           0           0           0           1           1           1           1           1           1           1
 AtZEff=   0.0000000   0.0000000   0.0000000   0.0000000   0.0000000   0.0000000   0.0000000   0.0000000   0.0000000   0.0000000
 NQMom=    0.0000000   0.0000000   0.0000000   0.0000000   0.0000000   0.0000000   0.0000000   0.0000000   0.0000000   0.0000000
 NMagM=    0.0000000   0.0000000   0.0000000   2.7928460   2.7928460   2.7928460   2.7928460   2.7928460   2.7928460   2.7928460

  Atom        31
 IAtWgt=           1
 AtmWgt=   1.0078250
 NucSpn=           1
 AtZEff=   0.0000000
 NQMom=    0.0000000
 NMagM=    2.7928460
 Leave Link  101 at Mon Mar 22 18:13:17 2021, MaxMem=   33554432 cpu:       0.0
 (Enter C:\G09W\l103.exe)

 GradGradGradGradGradGradGradGradGradGradGradGradGradGradGradGradGradGrad
 Berny optimization.
 Initialization pass.
 Trust Radius=3.00D-01 FncErr=1.00D-07 GrdErr=1.00D-07
 Number of steps in this run=   2 maximum allowed number of steps=   2.
 GradGradGradGradGradGradGradGradGradGradGradGradGradGradGradGradGradGrad

 Leave Link  103 at Mon Mar 22 18:13:17 2021, MaxMem=   33554432 cpu:       0.0
 (Enter C:\G09W\l202.exe)
                          Input orientation:                          
 ---------------------------------------------------------------------
 Center     Atomic      Atomic             Coordinates (Angstroms)
 Number     Number       Type             X           Y           Z
 ---------------------------------------------------------------------
      1          6           0       -0.760897   -2.251405   -0.828210
      2          6           0       -1.066366   -1.029275   -1.407028
      3          6           0       -0.785595    0.122682   -0.651252
      4          6           0       -0.212097    0.056732    0.662139
      5          6           0        0.082788   -1.200226    1.214795
      6          6           0       -0.192263   -2.335746    0.467743
      7          6           0        0.002763    1.424604    1.114855
      8          6           0       -0.537805    2.253663    0.118017
      9          7           0       -0.971257    1.488199   -0.964935
     10          1           0       -0.954171   -3.174236   -1.377326
     11          1           0       -1.498834   -0.959431   -2.401163
     12          1           0        0.523050   -1.269093    2.206177
     13          1           0        0.037597   -3.319420    0.873689
     14          1           0        0.036848    1.697370    2.163747
     15          1           0       -0.595125    3.333161    0.114861
     16          1           0       -1.322406    1.838625   -1.836607
     17          6           0        2.850961    2.207716   -1.127750
     18          6           0        2.526638    1.026895   -0.184402
     19          6           0        1.983983    1.697207    1.093532
     20          6           0        2.194017    3.046627    1.049869
     21          6           0        2.667134    3.468482   -0.273542
     22          8           0        2.889411    4.590870   -0.668298
     23          6           0        3.760196    0.193236    0.165037
     24          1           0        2.182038    2.239561   -2.001749
     25          1           0        3.874723    2.160189   -1.533732
     26          1           0        1.773913    0.363286   -0.660590
     27          1           0        1.973355    1.104608    2.007330
     28          1           0        2.024126    3.763948    1.829866
     29          1           0        4.569284    0.818419    0.561741
     30          1           0        4.148519   -0.327286   -0.718175
     31          1           0        3.532873   -0.566722    0.920858
 ---------------------------------------------------------------------
                    Distance matrix (angstroms):
                    1          2          3          4          5
     1  C    0.000000
     2  C    1.386342   0.000000
     3  C    2.380801   1.406071   0.000000
     4  C    2.801753   2.488100   1.434658   0.000000
     5  C    2.447580   2.867705   2.446692   1.404396   0.000000
     6  C    1.417727   2.446566   2.765512   2.400445   1.386776
     7  C    4.227496   3.677561   2.331447   1.456774   2.627950
     8  C    4.608769   3.658255   2.279091   2.286627   3.676603
     9  N    3.748011   2.557767   1.413331   2.296256   3.617992
    10  H    1.091101   2.148098   3.380129   3.892203   3.419224
    11  H    2.165162   1.086375   2.177582   3.474492   3.954069
    12  H    3.438162   3.954618   3.437221   2.163864   1.086928
    13  H    2.162107   3.415431   3.853719   3.391976   2.146946
    14  H    5.018069   4.626241   3.328704   2.237966   3.049374
    15  H    5.666060   4.644250   3.306113   3.343831   4.713917
    16  H    4.249765   2.911176   2.153531   3.263688   4.529927
    17  C    5.746216   5.089358   4.218881   4.148826   4.976381
    18  C    4.687177   4.316518   3.465031   3.026304   3.590295
    19  C    5.178706   4.794907   3.632349   2.774891   3.467616
    20  C    6.350420   5.768832   4.507921   3.857355   4.745550
    21  C    6.691499   5.954295   4.822694   4.561305   5.539930
    22  O    7.756742   6.912302   5.785384   5.652240   6.705218
    23  C    5.234796   5.221266   4.619039   4.005602   4.070264
    24  H    5.496075   4.646624   3.887398   4.194391   5.156077
    25  H    6.438082   5.882440   5.162245   5.093964   5.764161
    26  H    3.645540   3.250166   2.570809   2.405789   2.970107
    27  H    5.174867   5.044919   3.955255   2.771964   3.084577
    28  H    7.141862   6.557714   5.225830   4.484164   5.365643
    29  H    6.306077   6.249046   5.534450   4.842711   4.962867
    30  H    5.274154   5.306819   4.955041   4.589956   4.585690
    31  H    4.932936   5.175520   4.647147   3.805316   3.520058
                    6          7          8          9         10
     6  C    0.000000
     7  C    3.820605   0.000000
     8  C    4.615668   1.404720   0.000000
     9  N    4.157157   2.297452   1.395207   0.000000
    10  H    2.165143   5.317520   5.645485   4.680669   0.000000
    11  H    3.439765   4.505641   4.194499   2.886517   2.500052
    12  H    2.161383   2.952572   4.230323   4.459996   4.318940
    13  H    1.088688   4.750277   5.653440   5.245143   2.464092
    14  H    4.381204   1.084314   2.196520   3.293733   6.103594
    15  H    5.694148   2.236078   1.081022   2.170557   6.685936
    16  H    4.900268   3.261690   2.146722   1.002954   5.047308
    17  C    5.696478   3.708744   3.610788   3.892758   6.595963
    18  C    4.373222   2.866390   3.314700   3.613489   5.584676
    19  C    4.625189   2.000000   2.760559   3.607550   6.202326
    20  C    5.916345   2.727045   2.993324   4.062892   7.382513
    21  C    6.512658   3.633725   3.449745   4.199694   7.645776
    22  O    7.665853   4.640863   4.222160   4.961785   8.693257
    23  C    4.702054   4.066537   4.766590   5.033926   5.995332
    24  H    5.715692   3.889295   3.448355   3.403351   6.287679
    25  H    6.384333   4.748492   4.712475   4.925304   7.197137
    26  H    3.524735   2.723156   3.086065   2.982283   4.524402
    27  H    4.346984   2.186811   3.346006   4.201457   6.191511
    28  H    6.631292   3.173276   3.431454   4.686392   8.203337
    29  H    5.712261   4.639668   5.323456   5.785926   7.085889
    30  H    4.927748   4.859672   5.414993   5.437737   5.880225
    31  H    4.148662   4.057671   5.016927   5.297745   5.675768
                   11         12         13         14         15
    11  H    0.000000
    12  H    5.040980   0.000000
    13  H    4.319123   2.492996   0.000000
    14  H    5.500482   3.006342   5.180002   0.000000
    15  H    5.057016   5.177321   6.725547   2.696875   0.000000
    16  H    2.859889   5.422889   5.983372   4.227335   2.563358
    17  C    5.529296   5.349994   6.516902   4.360463   3.832260
    18  C    5.006390   3.873086   5.119115   3.487463   3.892791
    19  C    5.603626   3.488730   5.385471   2.221867   3.207169
    20  C    6.449439   4.770180   6.723670   2.777516   2.955614
    21  C    6.441154   5.761139   7.369275   3.999452   3.288084
    22  O    7.284597   6.942725   8.548874   4.952770   3.786444
    23  C    5.964178   4.096800   5.167077   4.485596   5.369400
    24  H    4.893046   5.724468   6.615817   4.716690   3.659048
    25  H    6.273721   6.081168   7.109524   5.349283   4.906451
    26  H    3.935739   3.528126   4.350991   3.574081   3.877347
    27  H    5.979228   2.788796   4.960275   2.031229   3.891654
    28  H    7.254182   5.265581   7.418536   2.886433   3.160268
    29  H    6.982951   4.840856   6.144527   4.886917   5.761488
    30  H    5.926605   4.752142   5.327905   5.413921   6.049378
    31  H    6.042195   3.347298   4.449328   4.346617   5.735772
                   16         17         18         19         20
    16  H    0.000000
    17  C    4.249200   0.000000
    18  C    4.266595   1.545778   0.000000
    19  C    4.420173   2.438517   1.541723   0.000000
    20  C    4.707042   2.424329   2.390267   1.366365   0.000000
    21  C    4.584325   1.533948   2.447250   2.339445   1.467385
    22  O    5.165192   2.427344   3.614924   3.506726   2.412541
    23  C    5.704974   2.560495   1.529300   2.505786   3.373082
    24  H    3.531169   1.101066   2.211800   3.148672   3.156560
    25  H    5.215869   1.102347   2.218643   3.269827   3.207107
    26  H    3.625856   2.186366   1.110733   2.213690   3.209748
    27  H    5.116315   3.437407   2.261825   1.089180   2.176433
    28  H    5.324394   3.442820   3.435295   2.194360   1.073223
    29  H    6.442431   2.781575   2.184627   2.781880   3.293186
    30  H    5.989414   2.877090   2.179270   3.473625   4.281279
    31  H    6.079725   3.515581   2.184886   2.748501   3.855577
                   21         22         23         24         25
    21  C    0.000000
    22  O    1.210369   0.000000
    23  C    3.480571   4.559813   0.000000
    24  H    2.175377   2.794122   3.372386   0.000000
    25  H    2.181280   2.761888   2.601506   1.757988   0.000000
    26  H    3.254212   4.372284   2.157753   2.342153   2.899076
    27  H    3.357321   4.489116   2.723498   4.171856   4.155547
    28  H    2.219253   2.770079   4.305296   4.126738   4.160594
    29  H    3.367300   4.308870   1.096746   3.780221   2.583364
    30  H    4.098788   5.077017   1.096267   3.478982   2.632040
    31  H    4.296391   5.435091   1.095664   4.271020   3.684823
                   26         27         28         29         30
    26  H    0.000000
    27  H    2.776173   0.000000
    28  H    4.222497   2.665738   0.000000
    29  H    3.084695   2.985043   4.094156   0.000000
    30  H    2.473653   3.769620   5.267234   1.768578   0.000000
    31  H    2.541621   2.530981   4.675181   1.766841   1.767139
                   31
    31  H    0.000000
 Stoichiometry    C14H15NO
 Framework group  C1[X(C14H15NO)]
 Deg. of freedom    87
 Full point group                 C1      NOp   1
 Largest Abelian subgroup         C1      NOp   1
 Largest concise Abelian subgroup C1      NOp   1
                         Standard orientation:                         
 ---------------------------------------------------------------------
 Center     Atomic      Atomic             Coordinates (Angstroms)
 Number     Number       Type             X           Y           Z
 ---------------------------------------------------------------------
      1          6           0        3.611102    0.333322   -0.829421
      2          6           0        2.825553   -0.752496   -1.184180
      3          6           0        1.720864   -1.036618   -0.362003
      4          6           0        1.406356   -0.252144    0.797277
      5          6           0        2.226619    0.839879    1.124359
      6          6           0        3.314558    1.120808    0.311578
      7          6           0        0.173731   -0.783242    1.363633
      8          6           0       -0.148584   -1.916982    0.599444
      9          7           0        0.743887   -2.052760   -0.464353
     10          1           0        4.476090    0.598405   -1.439360
     11          1           0        3.046677   -1.356694   -2.059542
     12          1           0        2.000099    1.448935    1.995652
     13          1           0        3.957516    1.968634    0.541878
     14          1           0       -0.084489   -0.677035    2.411383
     15          1           0       -0.978958   -2.594824    0.739513
     16          1           0        0.689341   -2.730180   -1.201946
     17          6           0       -2.116383    0.460154   -1.275330
     18          6           0       -0.993826    1.115362   -0.438672
     19          6           0       -1.229645    0.592518    0.992388
     20          6           0       -2.435455   -0.044879    1.074247
     21          6           0       -3.032069   -0.226465   -0.254022
     22          8           0       -4.056872   -0.801488   -0.544057
     23          6           0       -1.070526    2.642738   -0.439480
     24          1           0       -1.725558   -0.278182   -1.992590
     25          1           0       -2.683367    1.191246   -1.874664
     26          1           0       -0.003099    0.810239   -0.837532
     27          1           0       -0.765426    1.140189    1.811454
     28          1           0       -2.922787   -0.419166    1.954147
     29          1           0       -2.062728    2.996048   -0.133610
     30          1           0       -0.869629    3.047963   -1.438096
     31          1           0       -0.339680    3.083922    0.247324
 ---------------------------------------------------------------------
 Rotational constants (GHZ):      1.0144494      0.3885673      0.3472209
 Leave Link  202 at Mon Mar 22 18:13:17 2021, MaxMem=   33554432 cpu:       0.0
 (Enter C:\G09W\l301.exe)
 Standard basis: VSTO-6G (5D, 7F)
 Ernie: Thresh=  0.10000D-02 Tol=  0.10000D-05 Strict=F.
  NNHCO=     0 NNPyr=     1 NCTC=     0               EPep=        -0.000791136
    EC=       497.484419416  ECS=         6.545195109   EG=         0.779083383
   EHC=         0.001395385  EAt=       -82.450975812  AtH=         5.333065342
 EPDDG=         0.000000000  ECC=       504.809302157 EAtT=        87.784041155
 There are    79 symmetry adapted basis functions of A   symmetry.
 Integral buffers will be    262144 words long.
 Regular integral format.
 Two-electron integral symmetry is turned off.
    79 basis functions,   474 primitive gaussians,    79 cartesian basis functions
    41 alpha electrons       41 beta electrons
       nuclear repulsion energy       592.5933433116 Hartrees.
 IExCor=    0 DFT=F Ex=HF Corr=None ExCW=0 ScaHFX=  1.000000
 ScaDFX=  1.000000  1.000000  1.000000  1.000000 ScalE2=  1.000000  1.000000
 IRadAn=      0 IRanWt=     -1 IRanGd=            0 ICorTp=0
 Leave Link  301 at Mon Mar 22 18:13:17 2021, MaxMem=   33554432 cpu:       0.0
 (Enter C:\G09W\l302.exe)
 Do NDO integrals.
 NPDir=0 NMtPBC=     1 NCelOv=     1 NCel=       1 NClECP=     1 NCelD=      1
         NCelK=      1 NCelE2=     1 NClLst=     1 CellRange=     0.0.
 One-electron integrals computed using PRISM.
 NBasis=    79 RedAO= F  NBF=    79
 NBsUse=    79 1.00D-04 NBFU=    79
 Leave Link  302 at Mon Mar 22 18:13:17 2021, MaxMem=   33554432 cpu:       0.0
 (Enter C:\G09W\l303.exe)
 DipDrv:  MaxL=1.
 Leave Link  303 at Mon Mar 22 18:13:17 2021, MaxMem=   33554432 cpu:       0.0
 (Enter C:\G09W\l401.exe)
 Simple Huckel Guess.
 Initial guess orbital symmetries:
       Occupied  (A) (A) (A) (A) (A) (A) (A) (A) (A) (A) (A) (A)
                 (A) (A) (A) (A) (A) (A) (A) (A) (A) (A) (A) (A)
                 (A) (A) (A) (A) (A) (A) (A) (A) (A) (A) (A) (A)
                 (A) (A) (A) (A) (A)
       Virtual   (A) (A) (A) (A) (A) (A) (A) (A) (A) (A) (A) (A)
                 (A) (A) (A) (A) (A) (A) (A) (A) (A) (A) (A) (A)
                 (A) (A) (A) (A) (A) (A) (A) (A) (A) (A) (A) (A)
                 (A) (A)
 The electronic state of the initial guess is 1-A.
 Leave Link  401 at Mon Mar 22 18:13:18 2021, MaxMem=   33554432 cpu:       1.0
 (Enter C:\G09W\l502.exe)
 Closed shell SCF:
 Requested convergence on RMS density matrix=1.00D-08 within 128 cycles.
 Requested convergence on MAX density matrix=1.00D-06.
 Requested convergence on             energy=1.00D-06.
 No special actions if energy rises.
 Using DIIS extrapolation, IDIIS=  1040.
 Overlap will be assumed to be unity.
 Two-electron integral symmetry not used.
 Keep J ints in memory in canonical form, NReq=908288.
 IEnd=       92874 IEndB=       92874 NGot=    33554432 MDV=    33469091
 LenX=    33469091 LenY=    33462409
 Symmetry not used in FoFDir.
 MinBra= 0 MaxBra= 1 Meth=40.
 IRaf=       0 NMat=   1 IRICut=       1 DoRegI=T DoRafI=F ISym2E= 0 JSym2E=0.

 Cycle   1  Pass 1  IDiag  1:
 E= 0.451504116144065    
 DIIS: error= 5.12D-02 at cycle   1 NSaved=   1.
 NSaved= 1 IEnMin= 1 EnMin= 0.451504116144065     IErMin= 1 ErrMin= 5.12D-02
 ErrMax= 5.12D-02 EMaxC= 1.00D-01 BMatC= 1.14D-01 BMatP= 1.14D-01
 IDIUse=3 WtCom= 4.88D-01 WtEn= 5.12D-01
 Coeff-Com:  0.100D+01
 Coeff-En:   0.100D+01
 Coeff:      0.100D+01
 GapD=    2.000 DampG=2.000 DampE=0.500 DampFc=1.0000 IDamp=-1.
 RMSDP=8.05D-03 MaxDP=1.29D-01              OVMax= 0.00D+00

 Cycle   2  Pass 1  IDiag  1:
 E= 0.103448388160700     Delta-E=       -0.348055727983 Rises=F Damp=F
 DIIS: error= 1.67D-02 at cycle   2 NSaved=   2.
 NSaved= 2 IEnMin= 2 EnMin= 0.103448388160700     IErMin= 2 ErrMin= 1.67D-02
 ErrMax= 1.67D-02 EMaxC= 1.00D-01 BMatC= 1.12D-02 BMatP= 1.14D-01
 IDIUse=3 WtCom= 8.33D-01 WtEn= 1.67D-01
 Coeff-Com: -0.242D+00 0.124D+01
 Coeff-En:   0.000D+00 0.100D+01
 Coeff:     -0.201D+00 0.120D+01
 RMSDP=3.04D-03 MaxDP=4.60D-02 DE=-3.48D-01 OVMax= 0.00D+00

 Cycle   3  Pass 1  IDiag  3:
 E= 0.607839383040982E-01 Delta-E=       -0.042664449857 Rises=F Damp=F
 DIIS: error= 5.42D-03 at cycle   3 NSaved=   3.
 NSaved= 3 IEnMin= 3 EnMin= 0.607839383040982E-01 IErMin= 3 ErrMin= 5.42D-03
 ErrMax= 5.42D-03 EMaxC= 1.00D-01 BMatC= 1.05D-03 BMatP= 1.12D-02
 IDIUse=3 WtCom= 9.46D-01 WtEn= 5.42D-02
 Coeff-Com: -0.738D-02-0.237D+00 0.124D+01
 Coeff-En:   0.000D+00 0.000D+00 0.100D+01
 Coeff:     -0.698D-02-0.224D+00 0.123D+01
 Gap=     0.274 Goal=   None    Shift=    0.000
 RMSDP=1.32D-03 MaxDP=2.05D-02 DE=-4.27D-02 OVMax= 0.00D+00

 Cycle   4  Pass 1  IDiag  3:
 E= 0.550805194006898E-01 Delta-E=       -0.005703418903 Rises=F Damp=F
 DIIS: error= 1.15D-03 at cycle   4 NSaved=   4.
 NSaved= 4 IEnMin= 4 EnMin= 0.550805194006898E-01 IErMin= 4 ErrMin= 1.15D-03
 ErrMax= 1.15D-03 EMaxC= 1.00D-01 BMatC= 1.20D-04 BMatP= 1.05D-03
 IDIUse=3 WtCom= 9.88D-01 WtEn= 1.15D-02
 Coeff-Com:  0.253D-01-0.478D-01-0.302D+00 0.132D+01
 Coeff-En:   0.000D+00 0.000D+00 0.000D+00 0.100D+01
 Coeff:      0.251D-01-0.473D-01-0.298D+00 0.132D+01
 Gap=     0.276 Goal=   None    Shift=    0.000
 RMSDP=6.01D-04 MaxDP=8.27D-03 DE=-5.70D-03 OVMax= 0.00D+00

 Cycle   5  Pass 1  IDiag  3:
 E= 0.541631069299910E-01 Delta-E=       -0.000917412471 Rises=F Damp=F
 DIIS: error= 4.36D-04 at cycle   5 NSaved=   5.
 NSaved= 5 IEnMin= 5 EnMin= 0.541631069299910E-01 IErMin= 5 ErrMin= 4.36D-04
 ErrMax= 4.36D-04 EMaxC= 1.00D-01 BMatC= 1.75D-05 BMatP= 1.20D-04
 IDIUse=3 WtCom= 9.96D-01 WtEn= 4.36D-03
 Coeff-Com: -0.103D-01 0.363D-01 0.411D-01-0.631D+00 0.156D+01
 Coeff-En:   0.000D+00 0.000D+00 0.000D+00 0.000D+00 0.100D+01
 Coeff:     -0.103D-01 0.361D-01 0.409D-01-0.628D+00 0.156D+01
 Gap=     0.280 Goal=   None    Shift=    0.000
 RMSDP=3.08D-04 MaxDP=4.18D-03 DE=-9.17D-04 OVMax= 0.00D+00

 Cycle   6  Pass 1  IDiag  3:
 E= 0.539873256623196E-01 Delta-E=       -0.000175781268 Rises=F Damp=F
 DIIS: error= 1.53D-04 at cycle   6 NSaved=   6.
 NSaved= 6 IEnMin= 6 EnMin= 0.539873256623196E-01 IErMin= 6 ErrMin= 1.53D-04
 ErrMax= 1.53D-04 EMaxC= 1.00D-01 BMatC= 2.61D-06 BMatP= 1.75D-05
 IDIUse=3 WtCom= 9.98D-01 WtEn= 1.53D-03
 Coeff-Com:  0.204D-03-0.719D-02 0.325D-01 0.277D-01-0.512D+00 0.146D+01
 Coeff-En:   0.000D+00 0.000D+00 0.000D+00 0.000D+00 0.000D+00 0.100D+01
 Coeff:      0.204D-03-0.718D-02 0.324D-01 0.276D-01-0.511D+00 0.146D+01
 Gap=     0.280 Goal=   None    Shift=    0.000
 RMSDP=1.26D-04 MaxDP=1.43D-03 DE=-1.76D-04 OVMax= 0.00D+00

 Cycle   7  Pass 1  IDiag  3:
 E= 0.539596459897211E-01 Delta-E=       -0.000027679673 Rises=F Damp=F
 DIIS: error= 7.45D-05 at cycle   7 NSaved=   7.
 NSaved= 7 IEnMin= 7 EnMin= 0.539596459897211E-01 IErMin= 7 ErrMin= 7.45D-05
 ErrMax= 7.45D-05 EMaxC= 1.00D-01 BMatC= 4.96D-07 BMatP= 2.61D-06
 IDIUse=1 WtCom= 1.00D+00 WtEn= 0.00D+00
 Coeff-Com:  0.179D-02-0.466D-02-0.143D-01 0.907D-01-0.842D-01-0.452D+00
 Coeff-Com:  0.146D+01
 Coeff:      0.179D-02-0.466D-02-0.143D-01 0.907D-01-0.842D-01-0.452D+00
 Coeff:      0.146D+01
 Gap=     0.280 Goal=   None    Shift=    0.000
 RMSDP=5.71D-05 MaxDP=8.24D-04 DE=-2.77D-05 OVMax= 0.00D+00

 Cycle   8  Pass 1  IDiag  3:
 E= 0.539536350518119E-01 Delta-E=       -0.000006010938 Rises=F Damp=F
 DIIS: error= 3.69D-05 at cycle   8 NSaved=   8.
 NSaved= 8 IEnMin= 8 EnMin= 0.539536350518119E-01 IErMin= 8 ErrMin= 3.69D-05
 ErrMax= 3.69D-05 EMaxC= 1.00D-01 BMatC= 1.49D-07 BMatP= 4.96D-07
 IDIUse=1 WtCom= 1.00D+00 WtEn= 0.00D+00
 Coeff-Com: -0.115D-02 0.377D-02 0.671D-02-0.744D-01 0.134D+00 0.192D+00
 Coeff-Com: -0.133D+01 0.206D+01
 Coeff:     -0.115D-02 0.377D-02 0.671D-02-0.744D-01 0.134D+00 0.192D+00
 Coeff:     -0.133D+01 0.206D+01
 Gap=     0.280 Goal=   None    Shift=    0.000
 RMSDP=4.22D-05 MaxDP=6.12D-04 DE=-6.01D-06 OVMax= 0.00D+00

 Cycle   9  Pass 1  IDiag  3:
 E= 0.539511943785556E-01 Delta-E=       -0.000002440673 Rises=F Damp=F
 DIIS: error= 1.45D-05 at cycle   9 NSaved=   9.
 NSaved= 9 IEnMin= 9 EnMin= 0.539511943785556E-01 IErMin= 9 ErrMin= 1.45D-05
 ErrMax= 1.45D-05 EMaxC= 1.00D-01 BMatC= 3.76D-08 BMatP= 1.49D-07
 IDIUse=1 WtCom= 1.00D+00 WtEn= 0.00D+00
 Coeff-Com:  0.279D-03-0.785D-03-0.173D-02 0.211D-01-0.515D-01 0.191D-01
 Coeff-Com:  0.276D+00-0.108D+01 0.182D+01
 Coeff:      0.279D-03-0.785D-03-0.173D-02 0.211D-01-0.515D-01 0.191D-01
 Coeff:      0.276D+00-0.108D+01 0.182D+01
 Gap=     0.280 Goal=   None    Shift=    0.000
 RMSDP=2.68D-05 MaxDP=3.30D-04 DE=-2.44D-06 OVMax= 0.00D+00

 Cycle  10  Pass 1  IDiag  3:
 E= 0.539505060286274E-01 Delta-E=       -0.000000688350 Rises=F Damp=F
 DIIS: error= 7.01D-06 at cycle  10 NSaved=  10.
 NSaved=10 IEnMin=10 EnMin= 0.539505060286274E-01 IErMin=10 ErrMin= 7.01D-06
 ErrMax= 7.01D-06 EMaxC= 1.00D-01 BMatC= 7.69D-09 BMatP= 3.76D-08
 IDIUse=1 WtCom= 1.00D+00 WtEn= 0.00D+00
 Coeff-Com: -0.241D-05-0.204D-04 0.765D-04-0.170D-02 0.681D-02-0.169D-01
 Coeff-Com: -0.532D-02 0.209D+00-0.735D+00 0.154D+01
 Coeff:     -0.241D-05-0.204D-04 0.765D-04-0.170D-02 0.681D-02-0.169D-01
 Coeff:     -0.532D-02 0.209D+00-0.735D+00 0.154D+01
 Gap=     0.280 Goal=   None    Shift=    0.000
 RMSDP=9.35D-06 MaxDP=1.20D-04 DE=-6.88D-07 OVMax= 0.00D+00

 Cycle  11  Pass 1  IDiag  3:
 E= 0.539503994407369E-01 Delta-E=       -0.000000106588 Rises=F Damp=F
 DIIS: error= 4.02D-06 at cycle  11 NSaved=  11.
 NSaved=11 IEnMin=11 EnMin= 0.539503994407369E-01 IErMin=11 ErrMin= 4.02D-06
 ErrMax= 4.02D-06 EMaxC= 1.00D-01 BMatC= 2.19D-09 BMatP= 7.69D-09
 IDIUse=1 WtCom= 1.00D+00 WtEn= 0.00D+00
 Coeff-Com: -0.869D-05 0.328D-04-0.314D-04 0.140D-03-0.827D-03 0.410D-02
 Coeff-Com: -0.742D-02 0.802D-02 0.853D-01-0.774D+00 0.169D+01
 Coeff:     -0.869D-05 0.328D-04-0.314D-04 0.140D-03-0.827D-03 0.410D-02
 Coeff:     -0.742D-02 0.802D-02 0.853D-01-0.774D+00 0.169D+01
 Gap=     0.280 Goal=   None    Shift=    0.000
 RMSDP=4.87D-06 MaxDP=6.77D-05 DE=-1.07D-07 OVMax= 0.00D+00

 Cycle  12  Pass 1  IDiag  3:
 E= 0.539503679462996E-01 Delta-E=       -0.000000031494 Rises=F Damp=F
 DIIS: error= 1.93D-06 at cycle  12 NSaved=  12.
 NSaved=12 IEnMin=12 EnMin= 0.539503679462996E-01 IErMin=12 ErrMin= 1.93D-06
 ErrMax= 1.93D-06 EMaxC= 1.00D-01 BMatC= 5.93D-10 BMatP= 2.19D-09
 IDIUse=1 WtCom= 1.00D+00 WtEn= 0.00D+00
 Coeff-Com: -0.832D-05 0.137D-04 0.599D-04-0.452D-03 0.122D-02-0.198D-02
 Coeff-Com: -0.789D-03 0.654D-02-0.198D-01 0.239D+00-0.111D+01 0.188D+01
 Coeff:     -0.832D-05 0.137D-04 0.599D-04-0.452D-03 0.122D-02-0.198D-02
 Coeff:     -0.789D-03 0.654D-02-0.198D-01 0.239D+00-0.111D+01 0.188D+01
 Gap=     0.280 Goal=   None    Shift=    0.000
 RMSDP=3.04D-06 MaxDP=3.88D-05 DE=-3.15D-08 OVMax= 0.00D+00

 Cycle  13  Pass 1  IDiag  3:
 E= 0.539503580299652E-01 Delta-E=       -0.000000009916 Rises=F Damp=F
 DIIS: error= 7.98D-07 at cycle  13 NSaved=  13.
 NSaved=13 IEnMin=13 EnMin= 0.539503580299652E-01 IErMin=13 ErrMin= 7.98D-07
 ErrMax= 7.98D-07 EMaxC= 1.00D-01 BMatC= 1.15D-10 BMatP= 5.93D-10
 IDIUse=1 WtCom= 1.00D+00 WtEn= 0.00D+00
 Coeff-Com:  0.378D-06 0.346D-05-0.239D-04 0.656D-04-0.116D-03 0.455D-03
 Coeff-Com: -0.210D-03-0.305D-02 0.934D-02-0.575D-01 0.340D+00-0.998D+00
 Coeff-Com:  0.171D+01
 Coeff:      0.378D-06 0.346D-05-0.239D-04 0.656D-04-0.116D-03 0.455D-03
 Coeff:     -0.210D-03-0.305D-02 0.934D-02-0.575D-01 0.340D+00-0.998D+00
 Coeff:      0.171D+01
 Gap=     0.280 Goal=   None    Shift=    0.000
 RMSDP=1.33D-06 MaxDP=1.68D-05 DE=-9.92D-09 OVMax= 0.00D+00

 Cycle  14  Pass 1  IDiag  3:
 E= 0.539503561366246E-01 Delta-E=       -0.000000001893 Rises=F Damp=F
 DIIS: error= 2.69D-07 at cycle  14 NSaved=  14.
 NSaved=14 IEnMin=14 EnMin= 0.539503561366246E-01 IErMin=14 ErrMin= 2.69D-07
 ErrMax= 2.69D-07 EMaxC= 1.00D-01 BMatC= 2.37D-11 BMatP= 1.15D-10
 IDIUse=1 WtCom= 1.00D+00 WtEn= 0.00D+00
 Coeff-Com:  0.297D-06-0.290D-05-0.213D-05 0.644D-04-0.137D-03-0.307D-03
 Coeff-Com:  0.168D-02-0.285D-02 0.836D-03 0.140D-01-0.770D-01 0.321D+00
 Coeff-Com: -0.102D+01 0.176D+01
 Coeff:      0.297D-06-0.290D-05-0.213D-05 0.644D-04-0.137D-03-0.307D-03
 Coeff:      0.168D-02-0.285D-02 0.836D-03 0.140D-01-0.770D-01 0.321D+00
 Coeff:     -0.102D+01 0.176D+01
 Gap=     0.280 Goal=   None    Shift=    0.000
 RMSDP=5.74D-07 MaxDP=6.19D-06 DE=-1.89D-09 OVMax= 0.00D+00

 Cycle  15  Pass 1  IDiag  3:
 E= 0.539503557657781E-01 Delta-E=       -0.000000000371 Rises=F Damp=F
 DIIS: error= 1.82D-07 at cycle  15 NSaved=  15.
 NSaved=15 IEnMin=15 EnMin= 0.539503557657781E-01 IErMin=15 ErrMin= 1.82D-07
 ErrMax= 1.82D-07 EMaxC= 1.00D-01 BMatC= 4.33D-12 BMatP= 2.37D-11
 IDIUse=1 WtCom= 1.00D+00 WtEn= 0.00D+00
 Coeff-Com: -0.270D-06 0.255D-05-0.554D-05-0.804D-05 0.496D-04-0.675D-04
 Coeff-Com: -0.111D-03 0.843D-03-0.148D-02-0.351D-03 0.852D-02-0.455D-01
 Coeff-Com:  0.223D+00-0.830D+00 0.165D+01
 Coeff:     -0.270D-06 0.255D-05-0.554D-05-0.804D-05 0.496D-04-0.675D-04
 Coeff:     -0.111D-03 0.843D-03-0.148D-02-0.351D-03 0.852D-02-0.455D-01
 Coeff:      0.223D+00-0.830D+00 0.165D+01
 Gap=     0.280 Goal=   None    Shift=    0.000
 RMSDP=2.46D-07 MaxDP=2.17D-06 DE=-3.71D-10 OVMax= 0.00D+00

 Cycle  16  Pass 1  IDiag  3:
 E= 0.539503557039325E-01 Delta-E=       -0.000000000062 Rises=F Damp=F
 DIIS: error= 8.54D-08 at cycle  16 NSaved=  16.
 NSaved=16 IEnMin=16 EnMin= 0.539503557039325E-01 IErMin=16 ErrMin= 8.54D-08
 ErrMax= 8.54D-08 EMaxC= 1.00D-01 BMatC= 6.70D-13 BMatP= 4.33D-12
 IDIUse=1 WtCom= 1.00D+00 WtEn= 0.00D+00
 Coeff-Com: -0.230D-07 0.300D-06-0.214D-05 0.937D-05-0.129D-04-0.194D-04
 Coeff-Com:  0.151D-03-0.354D-03 0.722D-03-0.163D-02 0.115D-02 0.321D-02
 Coeff-Com: -0.218D-01 0.157D+00-0.672D+00 0.153D+01
 Coeff:     -0.230D-07 0.300D-06-0.214D-05 0.937D-05-0.129D-04-0.194D-04
 Coeff:      0.151D-03-0.354D-03 0.722D-03-0.163D-02 0.115D-02 0.321D-02
 Coeff:     -0.218D-01 0.157D+00-0.672D+00 0.153D+01
 Gap=     0.280 Goal=   None    Shift=    0.000
 RMSDP=8.36D-08 MaxDP=6.46D-07 DE=-6.18D-11 OVMax= 0.00D+00

 Cycle  17  Pass 1  IDiag  3:
 E= 0.539503556937007E-01 Delta-E=       -0.000000000010 Rises=F Damp=F
 DIIS: error= 3.10D-08 at cycle  17 NSaved=  17.
 NSaved=17 IEnMin=17 EnMin= 0.539503556937007E-01 IErMin=17 ErrMin= 3.10D-08
 ErrMax= 3.10D-08 EMaxC= 1.00D-01 BMatC= 1.11D-13 BMatP= 6.70D-13
 IDIUse=1 WtCom= 1.00D+00 WtEn= 0.00D+00
 Coeff-Com: -0.104D-07 0.113D-06-0.381D-06-0.215D-05 0.989D-05 0.484D-05
 Coeff-Com: -0.905D-04 0.156D-03-0.113D-03 0.816D-04 0.292D-03-0.241D-02
 Coeff-Com:  0.921D-02-0.353D-01 0.168D+00-0.719D+00 0.158D+01
 Coeff:     -0.104D-07 0.113D-06-0.381D-06-0.215D-05 0.989D-05 0.484D-05
 Coeff:     -0.905D-04 0.156D-03-0.113D-03 0.816D-04 0.292D-03-0.241D-02
 Coeff:      0.921D-02-0.353D-01 0.168D+00-0.719D+00 0.158D+01
 Gap=     0.280 Goal=   None    Shift=    0.000
 RMSDP=3.13D-08 MaxDP=2.71D-07 DE=-1.02D-11 OVMax= 0.00D+00

 Cycle  18  Pass 1  IDiag  3:
 E= 0.539503556931322E-01 Delta-E=       -0.000000000001 Rises=F Damp=F
 DIIS: error= 1.07D-08 at cycle  18 NSaved=  18.
 NSaved=18 IEnMin=18 EnMin= 0.539503556931322E-01 IErMin=18 ErrMin= 1.07D-08
 ErrMax= 1.07D-08 EMaxC= 1.00D-01 BMatC= 1.71D-14 BMatP= 1.11D-13
 IDIUse=1 WtCom= 1.00D+00 WtEn= 0.00D+00
 Large coefficients: NSaved= 18 BigCof=    0.00 CofMax=   10.00 Det=-8.18D-15
 Inversion failed.  Reducing to 17 matrices.
 Large coefficients: NSaved= 17 BigCof=    0.00 CofMax=   10.00 Det=-8.18D-15
 Inversion failed.  Reducing to 16 matrices.
 Large coefficients: NSaved= 16 BigCof=    0.00 CofMax=   10.00 Det=-8.18D-15
 Inversion failed.  Reducing to 15 matrices.
 Coeff-Com:  0.310D-06-0.110D-05-0.949D-06 0.186D-04-0.620D-04 0.800D-04
 Coeff-Com: -0.963D-04 0.663D-04 0.694D-03-0.405D-02 0.130D-01-0.426D-01
 Coeff-Com:  0.208D+00-0.816D+00 0.164D+01
 Coeff:      0.310D-06-0.110D-05-0.949D-06 0.186D-04-0.620D-04 0.800D-04
 Coeff:     -0.963D-04 0.663D-04 0.694D-03-0.405D-02 0.130D-01-0.426D-01
 Coeff:      0.208D+00-0.816D+00 0.164D+01
 Gap=     0.280 Goal=   None    Shift=    0.000
 RMSDP=1.27D-08 MaxDP=1.22D-07 DE=-5.68D-13 OVMax= 0.00D+00

 Cycle  19  Pass 1  IDiag  3:
 E= 0.539503556969976E-01 Delta-E=        0.000000000004 Rises=F Damp=F
 DIIS: error= 3.68D-09 at cycle  19 NSaved=  16.
 NSaved=16 IEnMin=15 EnMin= 0.539503556931322E-01 IErMin=16 ErrMin= 3.68D-09
 ErrMax= 3.68D-09 EMaxC= 1.00D-01 BMatC= 2.10D-15 BMatP= 1.71D-14
 IDIUse=1 WtCom= 1.00D+00 WtEn= 0.00D+00
 Large coefficients: NSaved= 16 BigCof=    0.00 CofMax=   10.00 Det=-9.71D-16
 Inversion failed.  Reducing to 15 matrices.
 Coeff-Com:  0.839D-06-0.184D-05-0.261D-05 0.191D-04-0.301D-04 0.401D-04
 Coeff-Com: -0.365D-04-0.111D-03 0.742D-03-0.366D-02 0.141D-01-0.683D-01
 Coeff-Com:  0.293D+00-0.862D+00 0.163D+01
 Coeff:      0.839D-06-0.184D-05-0.261D-05 0.191D-04-0.301D-04 0.401D-04
 Coeff:     -0.365D-04-0.111D-03 0.742D-03-0.366D-02 0.141D-01-0.683D-01
 Coeff:      0.293D+00-0.862D+00 0.163D+01
 Gap=     0.280 Goal=   None    Shift=    0.000
 RMSDP=4.52D-09 MaxDP=5.06D-08 DE= 3.87D-12 OVMax= 0.00D+00

 Cycle  20  Pass 2  IDiag  1:
 RMSDP=4.52D-09 MaxDP=5.06D-08 DE= 3.87D-12 OVMax= 0.00D+00

 SCF Done:  E(RPM6) =  0.539503556970E-01 A.U. after   20 cycles
             Convg  =    0.4520D-08             -V/T =  1.0004
 KE=-1.506264744922D+02 PE=-9.810008153018D+02 EE= 5.390878968381D+02
 Leave Link  502 at Mon Mar 22 18:13:18 2021, MaxMem=   33554432 cpu:       0.0
 (Enter C:\G09W\l601.exe)
 Copying SCF densities to generalized density rwf, IOpCl= 0 IROHF=0.

 **********************************************************************

            Population analysis using the SCF density.

 **********************************************************************

 Orbital symmetries:
       Occupied  (A) (A) (A) (A) (A) (A) (A) (A) (A) (A) (A) (A)
                 (A) (A) (A) (A) (A) (A) (A) (A) (A) (A) (A) (A)
                 (A) (A) (A) (A) (A) (A) (A) (A) (A) (A) (A) (A)
                 (A) (A) (A) (A) (A)
       Virtual   (A) (A) (A) (A) (A) (A) (A) (A) (A) (A) (A) (A)
                 (A) (A) (A) (A) (A) (A) (A) (A) (A) (A) (A) (A)
                 (A) (A) (A) (A) (A) (A) (A) (A) (A) (A) (A) (A)
                 (A) (A)
 The electronic state is 1-A.
 Alpha  occ. eigenvalues --   -1.23975  -1.13728  -1.10203  -1.09314  -1.01716
 Alpha  occ. eigenvalues --   -0.95951  -0.95447  -0.92666  -0.90272  -0.82075
 Alpha  occ. eigenvalues --   -0.81220  -0.77735  -0.76590  -0.71074  -0.68773
 Alpha  occ. eigenvalues --   -0.67716  -0.61779  -0.60822  -0.60200  -0.58676
 Alpha  occ. eigenvalues --   -0.55998  -0.55429  -0.55027  -0.53231  -0.52918
 Alpha  occ. eigenvalues --   -0.51525  -0.51088  -0.50645  -0.48812  -0.48053
 Alpha  occ. eigenvalues --   -0.47122  -0.46409  -0.45609  -0.45107  -0.44581
 Alpha  occ. eigenvalues --   -0.43220  -0.41282  -0.36639  -0.35077  -0.34338
 Alpha  occ. eigenvalues --   -0.30530
 Alpha virt. eigenvalues --   -0.02608  -0.00096   0.00922   0.04810   0.05498
 Alpha virt. eigenvalues --    0.07914   0.08819   0.12660   0.12792   0.13222
 Alpha virt. eigenvalues --    0.13378   0.15056   0.15401   0.15602   0.15934
 Alpha virt. eigenvalues --    0.16525   0.16825   0.17016   0.17312   0.18168
 Alpha virt. eigenvalues --    0.18776   0.19447   0.19872   0.20222   0.20409
 Alpha virt. eigenvalues --    0.20816   0.20967   0.21073   0.21362   0.21506
 Alpha virt. eigenvalues --    0.21652   0.21941   0.22037   0.22349   0.22678
 Alpha virt. eigenvalues --    0.23578   0.24588   0.25039
          Condensed to atoms (all electrons):
              1          2          3          4          5          6
     1  C    4.110049   0.000000   0.000000   0.000000   0.000000   0.000000
     2  C    0.000000   4.205280   0.000000   0.000000   0.000000   0.000000
     3  C    0.000000   0.000000   3.950497   0.000000   0.000000   0.000000
     4  C    0.000000   0.000000   0.000000   4.020762   0.000000   0.000000
     5  C    0.000000   0.000000   0.000000   0.000000   4.131906   0.000000
     6  C    0.000000   0.000000   0.000000   0.000000   0.000000   4.170200
     7  C    0.000000   0.000000   0.000000   0.000000   0.000000   0.000000
     8  C    0.000000   0.000000   0.000000   0.000000   0.000000   0.000000
     9  N    0.000000   0.000000   0.000000   0.000000   0.000000   0.000000
    10  H    0.000000   0.000000   0.000000   0.000000   0.000000   0.000000
    11  H    0.000000   0.000000   0.000000   0.000000   0.000000   0.000000
    12  H    0.000000   0.000000   0.000000   0.000000   0.000000   0.000000
    13  H    0.000000   0.000000   0.000000   0.000000   0.000000   0.000000
    14  H    0.000000   0.000000   0.000000   0.000000   0.000000   0.000000
    15  H    0.000000   0.000000   0.000000   0.000000   0.000000   0.000000
    16  H    0.000000   0.000000   0.000000   0.000000   0.000000   0.000000
    17  C    0.000000   0.000000   0.000000   0.000000   0.000000   0.000000
    18  C    0.000000   0.000000   0.000000   0.000000   0.000000   0.000000
    19  C    0.000000   0.000000   0.000000   0.000000   0.000000   0.000000
    20  C    0.000000   0.000000   0.000000   0.000000   0.000000   0.000000
    21  C    0.000000   0.000000   0.000000   0.000000   0.000000   0.000000
    22  O    0.000000   0.000000   0.000000   0.000000   0.000000   0.000000
    23  C    0.000000   0.000000   0.000000   0.000000   0.000000   0.000000
    24  H    0.000000   0.000000   0.000000   0.000000   0.000000   0.000000
    25  H    0.000000   0.000000   0.000000   0.000000   0.000000   0.000000
    26  H    0.000000   0.000000   0.000000   0.000000   0.000000   0.000000
    27  H    0.000000   0.000000   0.000000   0.000000   0.000000   0.000000
    28  H    0.000000   0.000000   0.000000   0.000000   0.000000   0.000000
    29  H    0.000000   0.000000   0.000000   0.000000   0.000000   0.000000
    30  H    0.000000   0.000000   0.000000   0.000000   0.000000   0.000000
    31  H    0.000000   0.000000   0.000000   0.000000   0.000000   0.000000
              7          8          9         10         11         12
     1  C    0.000000   0.000000   0.000000   0.000000   0.000000   0.000000
     2  C    0.000000   0.000000   0.000000   0.000000   0.000000   0.000000
     3  C    0.000000   0.000000   0.000000   0.000000   0.000000   0.000000
     4  C    0.000000   0.000000   0.000000   0.000000   0.000000   0.000000
     5  C    0.000000   0.000000   0.000000   0.000000   0.000000   0.000000
     6  C    0.000000   0.000000   0.000000   0.000000   0.000000   0.000000
     7  C    4.313273   0.000000   0.000000   0.000000   0.000000   0.000000
     8  C    0.000000   3.991286   0.000000   0.000000   0.000000   0.000000
     9  N    0.000000   0.000000   5.245159   0.000000   0.000000   0.000000
    10  H    0.000000   0.000000   0.000000   0.853223   0.000000   0.000000
    11  H    0.000000   0.000000   0.000000   0.000000   0.842598   0.000000
    12  H    0.000000   0.000000   0.000000   0.000000   0.000000   0.847685
    13  H    0.000000   0.000000   0.000000   0.000000   0.000000   0.000000
    14  H    0.000000   0.000000   0.000000   0.000000   0.000000   0.000000
    15  H    0.000000   0.000000   0.000000   0.000000   0.000000   0.000000
    16  H    0.000000   0.000000   0.000000   0.000000   0.000000   0.000000
    17  C    0.000000   0.000000   0.000000   0.000000   0.000000   0.000000
    18  C    0.000000   0.000000   0.000000   0.000000   0.000000   0.000000
    19  C    0.000000   0.000000   0.000000   0.000000   0.000000   0.000000
    20  C    0.000000   0.000000   0.000000   0.000000   0.000000   0.000000
    21  C    0.000000   0.000000   0.000000   0.000000   0.000000   0.000000
    22  O    0.000000   0.000000   0.000000   0.000000   0.000000   0.000000
    23  C    0.000000   0.000000   0.000000   0.000000   0.000000   0.000000
    24  H    0.000000   0.000000   0.000000   0.000000   0.000000   0.000000
    25  H    0.000000   0.000000   0.000000   0.000000   0.000000   0.000000
    26  H    0.000000   0.000000   0.000000   0.000000   0.000000   0.000000
    27  H    0.000000   0.000000   0.000000   0.000000   0.000000   0.000000
    28  H    0.000000   0.000000   0.000000   0.000000   0.000000   0.000000
    29  H    0.000000   0.000000   0.000000   0.000000   0.000000   0.000000
    30  H    0.000000   0.000000   0.000000   0.000000   0.000000   0.000000
    31  H    0.000000   0.000000   0.000000   0.000000   0.000000   0.000000
             13         14         15         16         17         18
     1  C    0.000000   0.000000   0.000000   0.000000   0.000000   0.000000
     2  C    0.000000   0.000000   0.000000   0.000000   0.000000   0.000000
     3  C    0.000000   0.000000   0.000000   0.000000   0.000000   0.000000
     4  C    0.000000   0.000000   0.000000   0.000000   0.000000   0.000000
     5  C    0.000000   0.000000   0.000000   0.000000   0.000000   0.000000
     6  C    0.000000   0.000000   0.000000   0.000000   0.000000   0.000000
     7  C    0.000000   0.000000   0.000000   0.000000   0.000000   0.000000
     8  C    0.000000   0.000000   0.000000   0.000000   0.000000   0.000000
     9  N    0.000000   0.000000   0.000000   0.000000   0.000000   0.000000
    10  H    0.000000   0.000000   0.000000   0.000000   0.000000   0.000000
    11  H    0.000000   0.000000   0.000000   0.000000   0.000000   0.000000
    12  H    0.000000   0.000000   0.000000   0.000000   0.000000   0.000000
    13  H    0.849912   0.000000   0.000000   0.000000   0.000000   0.000000
    14  H    0.000000   0.814369   0.000000   0.000000   0.000000   0.000000
    15  H    0.000000   0.000000   0.827175   0.000000   0.000000   0.000000
    16  H    0.000000   0.000000   0.000000   0.727808   0.000000   0.000000
    17  C    0.000000   0.000000   0.000000   0.000000   4.478015   0.000000
    18  C    0.000000   0.000000   0.000000   0.000000   0.000000   4.048716
    19  C    0.000000   0.000000   0.000000   0.000000   0.000000   0.000000
    20  C    0.000000   0.000000   0.000000   0.000000   0.000000   0.000000
    21  C    0.000000   0.000000   0.000000   0.000000   0.000000   0.000000
    22  O    0.000000   0.000000   0.000000   0.000000   0.000000   0.000000
    23  C    0.000000   0.000000   0.000000   0.000000   0.000000   0.000000
    24  H    0.000000   0.000000   0.000000   0.000000   0.000000   0.000000
    25  H    0.000000   0.000000   0.000000   0.000000   0.000000   0.000000
    26  H    0.000000   0.000000   0.000000   0.000000   0.000000   0.000000
    27  H    0.000000   0.000000   0.000000   0.000000   0.000000   0.000000
    28  H    0.000000   0.000000   0.000000   0.000000   0.000000   0.000000
    29  H    0.000000   0.000000   0.000000   0.000000   0.000000   0.000000
    30  H    0.000000   0.000000   0.000000   0.000000   0.000000   0.000000
    31  H    0.000000   0.000000   0.000000   0.000000   0.000000   0.000000
             19         20         21         22         23         24
     1  C    0.000000   0.000000   0.000000   0.000000   0.000000   0.000000
     2  C    0.000000   0.000000   0.000000   0.000000   0.000000   0.000000
     3  C    0.000000   0.000000   0.000000   0.000000   0.000000   0.000000
     4  C    0.000000   0.000000   0.000000   0.000000   0.000000   0.000000
     5  C    0.000000   0.000000   0.000000   0.000000   0.000000   0.000000
     6  C    0.000000   0.000000   0.000000   0.000000   0.000000   0.000000
     7  C    0.000000   0.000000   0.000000   0.000000   0.000000   0.000000
     8  C    0.000000   0.000000   0.000000   0.000000   0.000000   0.000000
     9  N    0.000000   0.000000   0.000000   0.000000   0.000000   0.000000
    10  H    0.000000   0.000000   0.000000   0.000000   0.000000   0.000000
    11  H    0.000000   0.000000   0.000000   0.000000   0.000000   0.000000
    12  H    0.000000   0.000000   0.000000   0.000000   0.000000   0.000000
    13  H    0.000000   0.000000   0.000000   0.000000   0.000000   0.000000
    14  H    0.000000   0.000000   0.000000   0.000000   0.000000   0.000000
    15  H    0.000000   0.000000   0.000000   0.000000   0.000000   0.000000
    16  H    0.000000   0.000000   0.000000   0.000000   0.000000   0.000000
    17  C    0.000000   0.000000   0.000000   0.000000   0.000000   0.000000
    18  C    0.000000   0.000000   0.000000   0.000000   0.000000   0.000000
    19  C    3.887047   0.000000   0.000000   0.000000   0.000000   0.000000
    20  C    0.000000   4.542735   0.000000   0.000000   0.000000   0.000000
    21  C    0.000000   0.000000   3.401031   0.000000   0.000000   0.000000
    22  O    0.000000   0.000000   0.000000   6.528388   0.000000   0.000000
    23  C    0.000000   0.000000   0.000000   0.000000   4.490618   0.000000
    24  H    0.000000   0.000000   0.000000   0.000000   0.000000   0.832823
    25  H    0.000000   0.000000   0.000000   0.000000   0.000000   0.000000
    26  H    0.000000   0.000000   0.000000   0.000000   0.000000   0.000000
    27  H    0.000000   0.000000   0.000000   0.000000   0.000000   0.000000
    28  H    0.000000   0.000000   0.000000   0.000000   0.000000   0.000000
    29  H    0.000000   0.000000   0.000000   0.000000   0.000000   0.000000
    30  H    0.000000   0.000000   0.000000   0.000000   0.000000   0.000000
    31  H    0.000000   0.000000   0.000000   0.000000   0.000000   0.000000
             25         26         27         28         29         30
     1  C    0.000000   0.000000   0.000000   0.000000   0.000000   0.000000
     2  C    0.000000   0.000000   0.000000   0.000000   0.000000   0.000000
     3  C    0.000000   0.000000   0.000000   0.000000   0.000000   0.000000
     4  C    0.000000   0.000000   0.000000   0.000000   0.000000   0.000000
     5  C    0.000000   0.000000   0.000000   0.000000   0.000000   0.000000
     6  C    0.000000   0.000000   0.000000   0.000000   0.000000   0.000000
     7  C    0.000000   0.000000   0.000000   0.000000   0.000000   0.000000
     8  C    0.000000   0.000000   0.000000   0.000000   0.000000   0.000000
     9  N    0.000000   0.000000   0.000000   0.000000   0.000000   0.000000
    10  H    0.000000   0.000000   0.000000   0.000000   0.000000   0.000000
    11  H    0.000000   0.000000   0.000000   0.000000   0.000000   0.000000
    12  H    0.000000   0.000000   0.000000   0.000000   0.000000   0.000000
    13  H    0.000000   0.000000   0.000000   0.000000   0.000000   0.000000
    14  H    0.000000   0.000000   0.000000   0.000000   0.000000   0.000000
    15  H    0.000000   0.000000   0.000000   0.000000   0.000000   0.000000
    16  H    0.000000   0.000000   0.000000   0.000000   0.000000   0.000000
    17  C    0.000000   0.000000   0.000000   0.000000   0.000000   0.000000
    18  C    0.000000   0.000000   0.000000   0.000000   0.000000   0.000000
    19  C    0.000000   0.000000   0.000000   0.000000   0.000000   0.000000
    20  C    0.000000   0.000000   0.000000   0.000000   0.000000   0.000000
    21  C    0.000000   0.000000   0.000000   0.000000   0.000000   0.000000
    22  O    0.000000   0.000000   0.000000   0.000000   0.000000   0.000000
    23  C    0.000000   0.000000   0.000000   0.000000   0.000000   0.000000
    24  H    0.000000   0.000000   0.000000   0.000000   0.000000   0.000000
    25  H    0.820156   0.000000   0.000000   0.000000   0.000000   0.000000
    26  H    0.000000   0.858058   0.000000   0.000000   0.000000   0.000000
    27  H    0.000000   0.000000   0.867581   0.000000   0.000000   0.000000
    28  H    0.000000   0.000000   0.000000   0.812686   0.000000   0.000000
    29  H    0.000000   0.000000   0.000000   0.000000   0.839211   0.000000
    30  H    0.000000   0.000000   0.000000   0.000000   0.000000   0.843744
    31  H    0.000000   0.000000   0.000000   0.000000   0.000000   0.000000
             31
     1  C    0.000000
     2  C    0.000000
     3  C    0.000000
     4  C    0.000000
     5  C    0.000000
     6  C    0.000000
     7  C    0.000000
     8  C    0.000000
     9  N    0.000000
    10  H    0.000000
    11  H    0.000000
    12  H    0.000000
    13  H    0.000000
    14  H    0.000000
    15  H    0.000000
    16  H    0.000000
    17  C    0.000000
    18  C    0.000000
    19  C    0.000000
    20  C    0.000000
    21  C    0.000000
    22  O    0.000000
    23  C    0.000000
    24  H    0.000000
    25  H    0.000000
    26  H    0.000000
    27  H    0.000000
    28  H    0.000000
    29  H    0.000000
    30  H    0.000000
    31  H    0.848008
 Mulliken atomic charges:
              1
     1  C   -0.110049
     2  C   -0.205280
     3  C    0.049503
     4  C   -0.020762
     5  C   -0.131906
     6  C   -0.170200
     7  C   -0.313273
     8  C    0.008714
     9  N   -0.245159
    10  H    0.146777
    11  H    0.157402
    12  H    0.152315
    13  H    0.150088
    14  H    0.185631
    15  H    0.172825
    16  H    0.272192
    17  C   -0.478015
    18  C   -0.048716
    19  C    0.112953
    20  C   -0.542735
    21  C    0.598969
    22  O   -0.528388
    23  C   -0.490618
    24  H    0.167177
    25  H    0.179844
    26  H    0.141942
    27  H    0.132419
    28  H    0.187314
    29  H    0.160789
    30  H    0.156256
    31  H    0.151992
 Sum of Mulliken atomic charges =   0.00000
 Mulliken charges with hydrogens summed into heavy atoms:
              1
     1  C    0.036728
     2  C   -0.047879
     3  C    0.049503
     4  C   -0.020762
     5  C    0.020409
     6  C   -0.020113
     7  C   -0.127642
     8  C    0.181540
     9  N    0.027033
    17  C   -0.130994
    18  C    0.093226
    19  C    0.245372
    20  C   -0.355421
    21  C    0.598969
    22  O   -0.528388
    23  C   -0.021581
 Sum of Mulliken charges with hydrogens summed into heavy atoms =   0.00000
 Charge=              0.0000 electrons
 Dipole moment (field-independent basis, Debye):
    X=              5.5454    Y=              0.1749    Z=             -0.5804  Tot=              5.5784
 N-N= 5.925933433116D+02 E-N=-9.810008153650D+02  KE=-1.506264744922D+02
 Leave Link  601 at Mon Mar 22 18:13:18 2021, MaxMem=   33554432 cpu:       0.0
 (Enter C:\G09W\l701.exe)
 Compute integral first derivatives.
 ... and contract with generalized density number  0.
 Leave Link  701 at Mon Mar 22 18:13:18 2021, MaxMem=   33554432 cpu:       0.0
 (Enter C:\G09W\l702.exe)
 L702 exits ... SP integral derivatives will be done elsewhere.
 Leave Link  702 at Mon Mar 22 18:13:18 2021, MaxMem=   33554432 cpu:       0.0
 (Enter C:\G09W\l703.exe)
 Compute integral first derivatives, UseDBF=F ICtDFT=           0.
 Integral derivatives from FoFDir, PRISM(SPDF).
 Calling FoFJK, ICntrl=      2127 FMM=F ISym2X=0 I1Cent= 0 IOpClX= 0 NMat=1 NMatS=1 NMatT=0.
 FoFCou: FMM=F IPFlag=           0 FMFlag=      100000 FMFlg1=         800
         NFxFlg=           0 DoJE=F BraDBF=F KetDBF=F FulRan=T
         Omega=  0.000000  0.000000  1.000000  0.000000  0.000000 ICntrl=    2127 IOpCl=  0
         NMat0=    1 NMatS0=    1 NMatT0=    0 NMatD0=    1 NMtDS0=    0 NMtDT0=    0
         I1Cent=           0 NGrid=           0.
 Symmetry not used in FoFCou.
 Leave Link  703 at Mon Mar 22 18:13:18 2021, MaxMem=   33554432 cpu:       0.0
 (Enter C:\G09W\l716.exe)
 Dipole        = 2.18171260D+00 6.87923794D-02-2.28365146D-01
 ***** Axes restored to original set *****
 -------------------------------------------------------------------
 Center     Atomic                   Forces (Hartrees/Bohr)
 Number     Number              X              Y              Z
 -------------------------------------------------------------------
      1        6           0.000013951   -0.000271360   -0.000214532
      2        6           0.000059360   -0.000177191   -0.000020008
      3        6          -0.000078441   -0.000540067   -0.000286366
      4        6          -0.000089012    0.000116033   -0.000009682
      5        6          -0.000128322   -0.000272118    0.000001125
      6        6          -0.000093875    0.000001051   -0.000361318
      7        6          -0.043790359   -0.005792430    0.000376544
      8        6           0.000446405    0.000068076   -0.000348868
      9        7          -0.000060164   -0.000271176    0.000062316
     10        1           0.000003961    0.000558614    0.000522914
     11        1           0.000218420   -0.000069197    0.000632743
     12        1          -0.000072431   -0.000108131    0.000391841
     13        1          -0.000411650   -0.000348079    0.000099599
     14        1           0.000013793    0.000303493   -0.000030658
     15        1           0.000786723    0.000197823   -0.000335998
     16        1          -0.000321652    0.000218845    0.000121479
     17        6           0.000130730    0.000543701    0.000082544
     18        6           0.000087941    0.000303676   -0.000482973
     19        6           0.043926897    0.006027649   -0.000273441
     20        6          -0.000597299    0.000062723   -0.000089359
     21        6          -0.000217703    0.000217341    0.000326668
     22        8          -0.000389765    0.000052493   -0.000103649
     23        6          -0.000011305    0.000351234    0.000139488
     24        1           0.000383812   -0.000156244    0.000010948
     25        1          -0.000123964    0.000361987    0.000060253
     26        1          -0.000335437   -0.000377818   -0.000383930
     27        1          -0.000114375   -0.000620332    0.000321326
     28        1           0.000356649   -0.000213225   -0.000025379
     29        1           0.000525711   -0.000017710    0.000081792
     30        1           0.000007871    0.000260000    0.000122786
     31        1          -0.000126472   -0.000409663   -0.000388207
 -------------------------------------------------------------------
 Cartesian Forces:  Max     0.043926897 RMS     0.006496180
 Z-matrix is all fixed cartesians, so copy forces.
 Leave Link  716 at Mon Mar 22 18:13:18 2021, MaxMem=   33554432 cpu:       0.0
 (Enter C:\G09W\l103.exe)

 GradGradGradGradGradGradGradGradGradGradGradGradGradGradGradGradGradGrad
 Berny optimization.
 Search for a local minimum.
 Step number   1 out of a maximum of    2
 All quantities printed in internal units (Hartrees-Bohrs-Radians)
 Second derivative matrix not updated -- first step.
     Eigenvalues ---    0.00000   0.00000   0.00000   0.00000   0.00001
     Eigenvalues ---    0.00002   0.00192   0.00326   0.00587   0.00829
     Eigenvalues ---    0.00873   0.01256   0.01651   0.01765   0.02507
     Eigenvalues ---    0.02665   0.02861   0.03949   0.04591   0.04896
     Eigenvalues ---    0.05092   0.05232   0.05779   0.06170   0.06349
     Eigenvalues ---    0.06539   0.06670   0.06874   0.06973   0.07155
     Eigenvalues ---    0.07610   0.07752   0.08064   0.08993   0.09166
     Eigenvalues ---    0.10382   0.10681   0.11773   0.12915   0.12995
     Eigenvalues ---    0.13253   0.13600   0.14576   0.14894   0.15182
     Eigenvalues ---    0.17356   0.18085   0.18213   0.22191   0.27222
     Eigenvalues ---    0.27983   0.29484   0.30155   0.32059   0.34534
     Eigenvalues ---    0.35969   0.37731   0.40038   0.41345   0.45244
     Eigenvalues ---    0.46286   0.55761   0.58220   0.58699   0.69006
     Eigenvalues ---    0.72877   0.75406   0.81103   0.84020   0.84951
     Eigenvalues ---    0.86960   0.90852   1.00316   1.02226   1.07252
     Eigenvalues ---    1.07923   1.13860   1.21495   1.25512   1.30827
     Eigenvalues ---    1.38761   1.44449   1.48387   1.50863   1.59022
     Eigenvalues ---    1.65757   2.26628
 Eigenvalue     1 is  -7.51D-17 should be greater than     0.000000 Eigenvector:
                          X24       X25       X30       X26       X17
   1                   -0.15984  -0.15984  -0.15984  -0.15984  -0.15984
                          X18       X23       X22       X21       X29
   1                   -0.15984  -0.15984  -0.15984  -0.15984  -0.15984
 Eigenvalue     2 is   2.10D-08 Eigenvector:
                          Y27       Y28       Z22       Z31       Y12
   1                   -0.26297  -0.24533   0.24424  -0.21765   0.20551
                          Z15       Z30       Y14       Y19       Z13
   1                   -0.20530  -0.19207   0.19007  -0.18009   0.17392
 Eigenvalue     3 is   2.99D-06 Eigenvector:
                          X31       X30       Y24       X22       Y26
   1                    0.32353   0.26711  -0.26463  -0.24901  -0.23480
                          X23       X26       X29       X27       Y17
   1                    0.22891   0.19520   0.17043   0.16464  -0.14759
 Eigenvalue     4 is   4.93D-06 Eigenvector:
                          X15       X13       X8        X10       X28
   1                    0.36438  -0.27794   0.25815  -0.25607  -0.25597
                          X16       X14       X22       X9        X6
   1                    0.22778   0.20135  -0.19873   0.18939  -0.18207
 Eigenvalue     5 is   5.86D-06 Eigenvector:
                          X24       X27       Z26       X28       X25
   1                    0.31862  -0.29174  -0.27506  -0.25199   0.24750
                          Z27       Z19       X17       Z15       Z24
   1                   -0.22649  -0.20904   0.18626   0.17871  -0.16690
 Eigenvalue     6 is   2.42D-05 Eigenvector:
                          X11       X12       X14       X16       X2
   1                    0.35638  -0.35143  -0.32518   0.29017   0.20215
                          X5        Z12       X10       Z14       X13
   1                   -0.19764   0.19338   0.18680   0.16958  -0.16280
 Quadratic step=2.113D+02 exceeds max=3.000D-01 adjusted using Lamda=-1.134D-01.
 Angle between NR and scaled steps=  51.09 degrees.
 Angle between quadratic step and forces=  29.90 degrees.
 Linear search not attempted -- first point.
 TrRot= -0.000686  0.000000  0.000180 -0.291526  0.000140  0.291536
 Variable       Old X    -DE/DX   Delta X   Delta X   Delta X     New X
                                 (Linear)    (Quad)   (Total)
    X1       -1.43789   0.00001   0.00000   0.00179   0.00094  -1.43695
    Y1       -4.25454  -0.00027   0.00000  -0.00254  -0.00249  -4.25703
    Z1       -1.56509  -0.00021   0.00000  -0.00170  -0.00150  -1.56659
    X2       -2.01514   0.00006   0.00000   0.00105   0.00002  -2.01512
    Y2       -1.94505  -0.00018   0.00000  -0.00484  -0.00476  -1.94980
    Z2       -2.65890  -0.00002   0.00000  -0.00504  -0.00467  -2.66357
    X3       -1.48456  -0.00008   0.00000  -0.01538  -0.01624  -1.50080
    Y3        0.23183  -0.00054   0.00000  -0.00563  -0.00559   0.22624
    Z3       -1.23069  -0.00029   0.00000  -0.00503  -0.00463  -1.23532
    X4       -0.40080  -0.00009   0.00000  -0.05212  -0.05263  -0.45344
    Y4        0.10721   0.00012   0.00000  -0.01283  -0.01289   0.09432
    Z4        1.25126  -0.00001   0.00000   0.00540   0.00565   1.25691
    X5        0.15645  -0.00013   0.00000  -0.00479  -0.00514   0.15130
    Y5       -2.26810  -0.00027   0.00000  -0.00379  -0.00388  -2.27198
    Z5        2.29563   0.00000   0.00000  -0.00117  -0.00110   2.29453
    X6       -0.36332  -0.00009   0.00000   0.00355   0.00302  -0.36030
    Y6       -4.41392   0.00000   0.00000  -0.00328  -0.00332  -4.41724
    Z6        0.88391  -0.00036   0.00000  -0.00278  -0.00273   0.88117
    X7        0.00522  -0.04379   0.00000  -0.18652  -0.18694  -0.18172
    Y7        2.69211  -0.00579   0.00000  -0.01785  -0.01794   2.67417
    Z7        2.10677   0.00038   0.00000   0.03178   0.03210   2.13887
    X8       -1.01630   0.00045   0.00000  -0.04952  -0.05022  -1.06652
    Y8        4.25881   0.00007   0.00000   0.00247   0.00246   4.26126
    Z8        0.22302  -0.00035   0.00000  -0.00469  -0.00419   0.21883
    X9       -1.83541  -0.00006   0.00000  -0.01542  -0.01638  -1.85179
    Y9        2.81229  -0.00027   0.00000  -0.00306  -0.00300   2.80929
    Z9       -1.82346   0.00006   0.00000  -0.00867  -0.00813  -1.83159
   X10       -1.80312   0.00000   0.00000   0.00077  -0.00021  -1.80333
   Y10       -5.99844   0.00056   0.00000  -0.00113  -0.00105  -5.99948
   Z10       -2.60277   0.00052   0.00000   0.00080   0.00098  -2.60179
   X11       -2.83239   0.00022   0.00000   0.00284   0.00156  -2.83083
   Y11       -1.81306  -0.00007   0.00000  -0.00353  -0.00338  -1.81644
   Z11       -4.53754   0.00063   0.00000  -0.00310  -0.00261  -4.54015
   X12        0.98842  -0.00007   0.00000  -0.00514  -0.00524   0.98318
   Y12       -2.39824  -0.00011   0.00000   0.00059   0.00043  -2.39781
   Z12        4.16907   0.00039   0.00000   0.00084   0.00079   4.16986
   X13        0.07105  -0.00041   0.00000   0.00063   0.00022   0.07127
   Y13       -6.27279  -0.00035   0.00000  -0.00311  -0.00318  -6.27597
   Z13        1.65103   0.00010   0.00000  -0.00091  -0.00100   1.65004
   X14        0.06963   0.00001   0.00000  -0.06283  -0.06299   0.00664
   Y14        3.20756   0.00030   0.00000  -0.00207  -0.00224   3.20533
   Z14        4.08889  -0.00003   0.00000   0.01861   0.01892   4.10781
   X15       -1.12462   0.00079   0.00000   0.00648   0.00577  -1.11886
   Y15        6.29876   0.00020   0.00000   0.00453   0.00451   6.30327
   Z15        0.21706  -0.00034   0.00000  -0.01163  -0.01105   0.20601
   X16       -2.49899  -0.00032   0.00000   0.00281   0.00162  -2.49737
   Y16        3.47450   0.00022   0.00000  -0.00053  -0.00041   3.47408
   Z16       -3.47069   0.00012   0.00000  -0.01253  -0.01188  -3.48256
   X17        5.38754   0.00013   0.00000   0.01158   0.01057   5.39810
   Y17        4.17198   0.00054   0.00000   0.00494   0.00507   4.17705
   Z17       -2.13114   0.00008   0.00000  -0.00307  -0.00345  -2.13459
   X18        4.77465   0.00009   0.00000   0.03476   0.03401   4.80867
   Y18        1.94055   0.00030   0.00000   0.00087   0.00093   1.94148
   Z18       -0.34847  -0.00048   0.00000  -0.00593  -0.00632  -0.35479
   X19        3.74918   0.04393   0.00000   0.18148   0.18104   3.93023
   Y19        3.20726   0.00603   0.00000   0.01197   0.01192   3.21918
   Z19        2.06648  -0.00027   0.00000   0.02377   0.02355   2.09003
   X20        4.14609  -0.00060   0.00000   0.05091   0.05044   4.19653
   Y20        5.75729   0.00006   0.00000   0.01773   0.01769   5.77498
   Z20        1.98397  -0.00009   0.00000   0.00461   0.00445   1.98842
   X21        5.04015  -0.00022   0.00000   0.01186   0.01104   5.05119
   Y21        6.55448   0.00022   0.00000   0.00961   0.00968   6.56416
   Z21       -0.51692   0.00033   0.00000  -0.00409  -0.00432  -0.52124
   X22        5.46020  -0.00039   0.00000  -0.00476  -0.00570   5.45450
   Y22        8.67549   0.00005   0.00000   0.00958   0.00969   8.68517
   Z22       -1.26290  -0.00010   0.00000  -0.00968  -0.00988  -1.27278
   X23        7.10574  -0.00001   0.00000   0.01564   0.01499   7.12073
   Y23        0.36516   0.00035   0.00000  -0.00633  -0.00627   0.35889
   Z23        0.31187   0.00014   0.00000  -0.00888  -0.00964   0.30223
   X24        4.12345   0.00038   0.00000   0.00491   0.00368   4.12713
   Y24        4.23216  -0.00016   0.00000  -0.00122  -0.00103   4.23113
   Z24       -3.78276   0.00001   0.00000   0.00128   0.00108  -3.78168
   X25        7.32217  -0.00012   0.00000   0.00695   0.00584   7.32800
   Y25        4.08217   0.00036   0.00000   0.00614   0.00633   4.08850
   Z25       -2.89833   0.00006   0.00000  -0.00627  -0.00691  -2.90524
   X26        3.35221  -0.00034   0.00000   0.00210   0.00124   3.35345
   Y26        0.68651  -0.00038   0.00000   0.01004   0.01012   0.69663
   Z26       -1.24833  -0.00038   0.00000   0.01691   0.01667  -1.23167
   X27        3.72910  -0.00011   0.00000   0.05566   0.05547   3.78457
   Y27        2.08741  -0.00062   0.00000  -0.00416  -0.00428   2.08313
   Z27        3.79330   0.00032   0.00000   0.01003   0.00979   3.80309
   X28        3.82504   0.00036   0.00000  -0.00039  -0.00068   3.82437
   Y28        7.11283  -0.00021   0.00000   0.00955   0.00945   7.12228
   Z28        3.45795  -0.00003   0.00000  -0.00196  -0.00201   3.45594
   X29        8.63470   0.00053   0.00000   0.01108   0.01052   8.64521
   Y29        1.54659  -0.00002   0.00000  -0.00517  -0.00514   1.54145
   Z29        1.06154   0.00008   0.00000  -0.00182  -0.00274   1.05880
   X30        7.83956   0.00001   0.00000   0.00896   0.00810   7.84766
   Y30       -0.61848   0.00026   0.00000  -0.00525  -0.00512  -0.62360
   Z30       -1.35715   0.00012   0.00000  -0.00688  -0.00778  -1.36494
   X31        6.67616  -0.00013   0.00000   0.00272   0.00228   6.67844
   Y31       -1.07095  -0.00041   0.00000  -0.00231  -0.00232  -1.07327
   Z31        1.74017  -0.00039   0.00000  -0.00667  -0.00743   1.73274
         Item               Value     Threshold  Converged?
 Maximum Force            0.043927     0.000450     NO 
 RMS     Force            0.006496     0.000300     NO 
 Maximum Displacement     0.186939     0.001800     NO 
 RMS     Displacement     0.031106     0.001200     NO 
 Predicted change in Energy=-1.325149D-02
 GradGradGradGradGradGradGradGradGradGradGradGradGradGradGradGradGradGrad

 Leave Link  103 at Mon Mar 22 18:13:18 2021, MaxMem=   33554432 cpu:       0.0
 (Enter C:\G09W\l9999.exe)
 1|1|UNPC-NICOL-ASUS|Force|RPM6|ZDO|C14H15N1O1|NIK|22-Mar-2021|0||#P P
 M6 force||Gaussian input prepared by ASE||0,1|C,-0.76089695,-2.2514049
 334,-0.8282095084|C,-1.066365797,-1.0292753698,-1.4070280942|C,-0.7855
 951246,0.1226817335,-0.651251712|C,-0.2120965094,0.0567322921,0.662138
 72|C,0.0827884412,-1.2002256998,1.214794745|C,-0.192263266,-2.33574604
 78,0.4677425749|C,0.0027625642,1.4246040408,1.114855342|C,-0.537805378
 1,2.2536634532,0.1180172324|N,-0.9712568416,1.4881991511,-0.9649353381
 |H,-0.9541709583,-3.1742361575,-1.377325659|H,-1.4988337708,-0.9594310
 756,-2.4011625262|H,0.5230498533,-1.2690926251,2.2061769648|H,0.037596
 8694,-3.3194197305,0.8736894796|H,0.0368480657,1.6973696839,2.16374685
 82|H,-0.5951247746,3.3331605087,0.1148609649|H,-1.3224063289,1.8386250
 858,-1.8366074852|C,2.8509611695,2.2077160588,-1.1277502129|C,2.526638
 325,1.02689515,-0.1844020096|C,1.983982594,1.6972072716,1.0935322989|C
 ,2.1940167503,3.046626913,1.0498690643|C,2.6671336284,3.4684823234,-0.
 273541959|O,2.8894109895,4.5908697476,-0.6682975287|C,3.760195708,0.19
 3236281,0.1650370338|H,2.1820379665,2.2395611726,-2.0017486376|H,3.874
 7230253,2.1601893277,-1.5337316494|H,1.7739126921,0.3632855403,-0.6605
 902466|H,1.9733551222,1.1046082069,2.0073301914|H,2.024126015,3.763948
 0605,1.8298660946|H,4.569284127,0.8184185324,0.5617410137|H,4.14851865
 77,-0.3272863114,-0.7181746883|H,3.5328730881,-0.5667223912,0.92085837
 85||Version=IA32W-G09RevA.02|State=1-A|HF=0.0539504|RMSD=4.520e-009|RM
 SF=6.496e-003|Dipole=-1.2076316,-1.8158957,-0.246783|PG=C01 [X(C14H15N
 1O1)]||@


 WE HAVE LEFT UNDONE THOSE THINGS WHICH WE OUGHT TO HAVE DONE,
 AND WE HAVE DONE THOSE THINGS WHICH WE OUGHT NOT TO HAVE DONE.
                   BOOK OF COMMON PRAYER                      
 Job cpu time:  0 days  0 hours  0 minutes  1.0 seconds.
 File lengths (MBytes):  RWF=      5 Int=      0 D2E=      0 Chk=      2 Scr=      1
 Normal termination of Gaussian 09 at Mon Mar 22 18:13:18 2021.
