 *******************************************************************************
 ** Site#: 36969        For non-commercial use only    Version 21.051W 64BITS **
 *******************************************************************************
 ** Cite this program as: MOPAC2016, Version: 21.051W, James J. P. Stewart,   **
 ** Stewart Computational Chemistry, web: HTTP://OpenMOPAC.net. Days left: 313**
 *******************************************************************************
 **                                                                           **
 **                                MOPAC2016                                  **
 **                                                                           **
 *******************************************************************************

                              PM7 CALCULATION RESULTS

 *******************************************************************************
 *  CALCULATION DONE:                                Tue Apr 13 16:07:18 2021  *
 *  PM7        - The PM7 Hamiltonian to be used
 *  1SCF       - DO 1 SCF AND THEN STOP 
 *  T=         - A TIME OF 172800.0 SECONDS REQUESTED
 *  DUMP=N     - RESTART FILE WRITTEN EVERY 7200.0 SECONDS REQUESTED
 *  RELSCF     - DEFAULT SCF CRITERION MULTIPLIED BY 0.0001
 *              (DEFAULT SCF CRITERION = 0.00010)
 *  GRADIENTS  - ALL GRADIENTS TO BE PRINTED
 *******************************************************************************
PM7 1SCF GRADIENTS RELSCF=0.0001
 Title: ASE calculation

   ATOM   CHEMICAL          X               Y               Z
  NUMBER   SYMBOL      (ANGSTROMS)     (ANGSTROMS)     (ANGSTROMS)
 
     1       C          0.00003000  *  -2.02587000  *  -0.86887000  *
     2       C          0.00007000  *  -0.76733000  *  -1.47853000  *
     3       C          0.00002000  *   0.35623000  *  -0.64340000  *
     4       C         -0.00002000  *   0.25983000  *   0.74851000  *
     5       C         -0.00006000  *  -1.01835000  *   1.33930000  *
     6       C          0.00002000  *  -2.15243000  *   0.51882000  *
     7       C         -0.00005000  *   1.58691000  *   1.26022000  *
     8       C         -0.00002000  *   2.45035000  *   0.18853000  *
     9       N          0.00003000  *   1.69714000  *  -0.95569000  *
    10       H          0.00008000  *  -2.91957000  *  -1.48874000  *
    11       H          0.00004000  *  -0.67274000  *  -2.55921000  *
    12       H         -0.00009000  *  -1.12486000  *   2.41982000  *
    13       H          0.00002000  *  -3.14092000  *   0.97123000  *
    14       H         -0.00002000  *   1.87539000  *   2.30306000  *
    15       H         -0.00006000  *   3.53093000  *   0.14157000  *
    16       H          0.00000000  *   2.06528000  *  -1.89661000  *
    17       C          1.95451000  *   1.90872000  *  -1.11640000  *
    18       C          1.99935000  *   0.82423000  *  -0.03401000  *
    19       C          1.99995000  *   1.58691000  *   1.26022000  *
    20       C          1.99942000  *   2.91528000  *   1.12749000  *
    21       C          1.98890000  *   3.17859000  *  -0.31629000  *
    22       O          1.99707000  *   4.30727000  *  -0.78244000  *
    23       C          3.23063000  *  -0.06566000  *  -0.16010000  *
    24       H          1.01940000  *   1.86281000  *  -1.68301000  *
    25       H          2.81008000  *   1.87141000  *  -1.79679000  *
    26       H          1.09984000  *   0.20012000  *  -0.09393000  *
    27       H          1.99952000  *   1.08932000  *   2.22262000  *
    28       H          2.00144000  *   3.68028000  *   1.88303000  *
    29       H          4.15833000  *   0.51433000  *  -0.09488000  *
    30       H          3.22841000  *  -0.59125000  *  -1.12093000  *
    31       H          3.25056000  *  -0.81911000  *   0.63491000  *
 


          CARTESIAN COORDINATES 

    NO.       ATOM           X           Y           Z

     1         C          0.0000     -2.0259     -0.8689
     2         C          0.0001     -0.7673     -1.4785
     3         C          0.0000      0.3562     -0.6434
     4         C         -0.0000      0.2598      0.7485
     5         C         -0.0001     -1.0184      1.3393
     6         C          0.0000     -2.1524      0.5188
     7         C         -0.0001      1.5869      1.2602
     8         C         -0.0000      2.4504      0.1885
     9         N          0.0000      1.6971     -0.9557
    10         H          0.0001     -2.9196     -1.4887
    11         H          0.0000     -0.6727     -2.5592
    12         H         -0.0001     -1.1249      2.4198
    13         H          0.0000     -3.1409      0.9712
    14         H         -0.0000      1.8754      2.3031
    15         H         -0.0001      3.5309      0.1416
    16         H          0.0000      2.0653     -1.8966
    17         C          1.9545      1.9087     -1.1164
    18         C          1.9993      0.8242     -0.0340
    19         C          2.0000      1.5869      1.2602
    20         C          1.9994      2.9153      1.1275
    21         C          1.9889      3.1786     -0.3163
    22         O          1.9971      4.3073     -0.7824
    23         C          3.2306     -0.0657     -0.1601
    24         H          1.0194      1.8628     -1.6830
    25         H          2.8101      1.8714     -1.7968
    26         H          1.0998      0.2001     -0.0939
    27         H          1.9995      1.0893      2.2226
    28         H          2.0014      3.6803      1.8830
    29         H          4.1583      0.5143     -0.0949
    30         H          3.2284     -0.5912     -1.1209
    31         H          3.2506     -0.8191      0.6349

 General Reference for PM7:
 "Optimization of Parameters for Semiempirical Methods VI: More Modifications to the 
 NDDO Approximations and Re-optimization of Parameters", J. J. P. Stewart, J. Mol. Mod., 1:32, 19 (2013)
 https://link.springer.com/article/10.1007/s00894-012-1667-x

           Empirical Formula: C14 H15 N O  =    31 atoms



      MOLECULAR POINT GROUP   :   C1  


      RHF CALCULATION, NO. OF DOUBLY OCCUPIED LEVELS = 41

  SCF CRITERION =    0.1000E-07

 -------------------------------------------------------------------------------
 PM7 1SCF GRADIENTS RELSCF=0.0001
 Title: ASE calculation



     1SCF WAS SPECIFIED, SO BFGS WAS NOT USED                 
     SCF FIELD WAS ACHIEVED                                   


                              PM7 CALCULATION
                                                       MOPAC2016 (Version: 21.051W)
                                                       Tue Apr 13 16:07:18 2021
                                                       No. of days remaining = 313




          FINAL HEAT OF FORMATION =        337.34787 KCAL/MOL =    1411.46347 KJ/MOL


          TOTAL ENERGY            =      -2388.52907 EV
          ELECTRONIC ENERGY       =     -17378.85784 EV  POINT GROUP:     C1  
          CORE-CORE REPULSION     =      14990.32877 EV
          COSMO AREA              =        214.16 SQUARE ANGSTROMS
          COSMO VOLUME            =        248.88 CUBIC ANGSTROMS

          GRADIENT NORM           =        625.19125 = 112.28767 PER ATOM
          IONIZATION POTENTIAL    =          8.012022 EV
          HOMO LUMO ENERGIES (EV) =         -8.012 -0.930
          NO. OF FILLED LEVELS    =         41
          MOLECULAR WEIGHT        =        213.2786

          MOLECULAR DIMENSIONS (Angstroms)

            Atom       Atom       Distance
            O    22    H    13     7.90817
            H    28    H    11     5.43897
            H    15    H    29     4.83931


          SCF CALCULATIONS        =          1
 
          WALL-CLOCK TIME         =          0.039 SECONDS
          COMPUTATION TIME        =          0.125 SECONDS

          LARGEST ATOMIC GRADIENTS

          Atom     Label                     Cartesian Gradients           Cartesian Coordinates       |Gradient|
                                           X          Y          Z        X          Y          Z

             9       N                 251.524     -8.347    -14.630    0.00003    1.69714   -0.95569    252.087
             3       C                 195.391     45.772    119.972    0.00002    0.35623   -0.64340    233.808
             4       C                 159.198     59.076   -160.123   -0.00002    0.25983    0.74851    233.395
            18       C                -207.636    -37.381      0.718    1.99935    0.82423   -0.03401    210.975
            26       H                -194.870     68.194      0.168    1.09984    0.20012   -0.09393    206.458
            24       H                -150.103    -13.685    115.736    1.01940    1.86281   -1.68301    190.034
            17       C                -181.036    -17.555     -4.896    1.95451    1.90872   -1.11640    181.951
             8       C                 114.690    -25.805    -13.699   -0.00002    2.45035    0.18853    118.353
             7       C                  86.034     -4.498    -59.551   -0.00005    1.58691    1.26022    104.730
            21       C                 -55.756    -82.522     12.248    1.98890    3.17859   -0.31629    100.342
            16       H                  81.472    -18.685     34.810    0.00000    2.06528   -1.89661     90.546
            19       C                 -72.602     23.473    -39.724    1.99995    1.58691    1.26022     86.024
            20       C                 -66.151    -35.775    -11.821    1.99942    2.91528    1.12749     76.128
             2       C                  19.469     34.935     23.119    0.00007   -0.76733   -1.47853     46.195



       FINAL  POINT  AND  DERIVATIVES

   PARAMETER     ATOM    TYPE            VALUE        GRADIENT
      1          1  C    CARTESIAN X     0.000030      1.007866  KCAL/ANGSTROM
      2          1  C    CARTESIAN Y    -2.025870    -15.372879  KCAL/ANGSTROM
      3          1  C    CARTESIAN Z    -0.868870     19.584523  KCAL/ANGSTROM
      4          2  C    CARTESIAN X     0.000070     19.469367  KCAL/ANGSTROM
      5          2  C    CARTESIAN Y    -0.767330     34.934827  KCAL/ANGSTROM
      6          2  C    CARTESIAN Z    -1.478530     23.118980  KCAL/ANGSTROM
      7          3  C    CARTESIAN X     0.000020    195.390974  KCAL/ANGSTROM
      8          3  C    CARTESIAN Y     0.356230     45.772303  KCAL/ANGSTROM
      9          3  C    CARTESIAN Z    -0.643400    119.972128  KCAL/ANGSTROM
     10          4  C    CARTESIAN X    -0.000020    159.198324  KCAL/ANGSTROM
     11          4  C    CARTESIAN Y     0.259830     59.076300  KCAL/ANGSTROM
     12          4  C    CARTESIAN Z     0.748510   -160.122798  KCAL/ANGSTROM
     13          5  C    CARTESIAN X    -0.000060     10.076155  KCAL/ANGSTROM
     14          5  C    CARTESIAN Y    -1.018350     12.270382  KCAL/ANGSTROM
     15          5  C    CARTESIAN Z     1.339300     -3.492965  KCAL/ANGSTROM
     16          6  C    CARTESIAN X     0.000020     -0.117589  KCAL/ANGSTROM
     17          6  C    CARTESIAN Y    -2.152430    -13.795407  KCAL/ANGSTROM
     18          6  C    CARTESIAN Z     0.518820    -21.396173  KCAL/ANGSTROM
     19          7  C    CARTESIAN X    -0.000050     86.033919  KCAL/ANGSTROM
     20          7  C    CARTESIAN Y     1.586910     -4.497998  KCAL/ANGSTROM
     21          7  C    CARTESIAN Z     1.260220    -59.550658  KCAL/ANGSTROM
     22          8  C    CARTESIAN X    -0.000020    114.690215  KCAL/ANGSTROM
     23          8  C    CARTESIAN Y     2.450350    -25.804584  KCAL/ANGSTROM
     24          8  C    CARTESIAN Z     0.188530    -13.698522  KCAL/ANGSTROM
     25          9  N    CARTESIAN X     0.000030    251.523960  KCAL/ANGSTROM
     26          9  N    CARTESIAN Y     1.697140     -8.346887  KCAL/ANGSTROM
     27          9  N    CARTESIAN Z    -0.955690    -14.629994  KCAL/ANGSTROM
     28         10  H    CARTESIAN X     0.000080      0.099947  KCAL/ANGSTROM
     29         10  H    CARTESIAN Y    -2.919570      0.518828  KCAL/ANGSTROM
     30         10  H    CARTESIAN Z    -1.488740      1.136903  KCAL/ANGSTROM
     31         11  H    CARTESIAN X     0.000040      0.200745  KCAL/ANGSTROM
     32         11  H    CARTESIAN Y    -0.672740     -0.024246  KCAL/ANGSTROM
     33         11  H    CARTESIAN Z    -2.559210     -1.160590  KCAL/ANGSTROM
     34         12  H    CARTESIAN X    -0.000090      0.178209  KCAL/ANGSTROM
     35         12  H    CARTESIAN Y    -1.124860     -1.423607  KCAL/ANGSTROM
     36         12  H    CARTESIAN Z     2.419820     -0.156358  KCAL/ANGSTROM
     37         13  H    CARTESIAN X     0.000020      0.101382  KCAL/ANGSTROM
     38         13  H    CARTESIAN Y    -3.140920     -0.029029  KCAL/ANGSTROM
     39         13  H    CARTESIAN Z     0.971230     -0.250705  KCAL/ANGSTROM
     40         14  H    CARTESIAN X    -0.000020     14.537027  KCAL/ANGSTROM
     41         14  H    CARTESIAN Y     1.875390      2.998420  KCAL/ANGSTROM
     42         14  H    CARTESIAN Z     2.303060     -0.946905  KCAL/ANGSTROM
     43         15  H    CARTESIAN X    -0.000060     22.055484  KCAL/ANGSTROM
     44         15  H    CARTESIAN Y     3.530930     -8.626267  KCAL/ANGSTROM
     45         15  H    CARTESIAN Z     0.141570     -6.037911  KCAL/ANGSTROM
     46         16  H    CARTESIAN X     0.000000     81.471967  KCAL/ANGSTROM
     47         16  H    CARTESIAN Y     2.065280    -18.685040  KCAL/ANGSTROM
     48         16  H    CARTESIAN Z    -1.896610     34.809806  KCAL/ANGSTROM
     49         17  C    CARTESIAN X     1.954510   -181.036166  KCAL/ANGSTROM
     50         17  C    CARTESIAN Y     1.908720    -17.554598  KCAL/ANGSTROM
     51         17  C    CARTESIAN Z    -1.116400     -4.895967  KCAL/ANGSTROM
     52         18  C    CARTESIAN X     1.999350   -207.636208  KCAL/ANGSTROM
     53         18  C    CARTESIAN Y     0.824230    -37.380821  KCAL/ANGSTROM
     54         18  C    CARTESIAN Z    -0.034010      0.718130  KCAL/ANGSTROM
     55         19  C    CARTESIAN X     1.999950    -72.602395  KCAL/ANGSTROM
     56         19  C    CARTESIAN Y     1.586910     23.472782  KCAL/ANGSTROM
     57         19  C    CARTESIAN Z     1.260220    -39.723998  KCAL/ANGSTROM
     58         20  C    CARTESIAN X     1.999420    -66.150718  KCAL/ANGSTROM
     59         20  C    CARTESIAN Y     2.915280    -35.774514  KCAL/ANGSTROM
     60         20  C    CARTESIAN Z     1.127490    -11.820515  KCAL/ANGSTROM
     61         21  C    CARTESIAN X     1.988900    -55.755617  KCAL/ANGSTROM
     62         21  C    CARTESIAN Y     3.178590    -82.521715  KCAL/ANGSTROM
     63         21  C    CARTESIAN Z    -0.316290     12.248006  KCAL/ANGSTROM
     64         22  O    CARTESIAN X     1.997070     -1.899625  KCAL/ANGSTROM
     65         22  O    CARTESIAN Y     4.307270     21.677281  KCAL/ANGSTROM
     66         22  O    CARTESIAN Z    -0.782440      2.599028  KCAL/ANGSTROM
     67         23  C    CARTESIAN X     3.230630     -1.999442  KCAL/ANGSTROM
     68         23  C    CARTESIAN Y    -0.065660     -0.346922  KCAL/ANGSTROM
     69         23  C    CARTESIAN Z    -0.160100     -1.847452  KCAL/ANGSTROM
     70         24  H    CARTESIAN X     1.019400   -150.103329  KCAL/ANGSTROM
     71         24  H    CARTESIAN Y     1.862810    -13.684543  KCAL/ANGSTROM
     72         24  H    CARTESIAN Z    -1.683010    115.735950  KCAL/ANGSTROM
     73         25  H    CARTESIAN X     2.810080     -4.689607  KCAL/ANGSTROM
     74         25  H    CARTESIAN Y     1.871410      1.993710  KCAL/ANGSTROM
     75         25  H    CARTESIAN Z    -1.796790      5.496189  KCAL/ANGSTROM
     76         26  H    CARTESIAN X     1.099840   -194.869679  KCAL/ANGSTROM
     77         26  H    CARTESIAN Y     0.200120     68.194480  KCAL/ANGSTROM
     78         26  H    CARTESIAN Z    -0.093930      0.167664  KCAL/ANGSTROM
     79         27  H    CARTESIAN X     1.999520    -14.590213  KCAL/ANGSTROM
     80         27  H    CARTESIAN Y     1.089320      9.802190  KCAL/ANGSTROM
     81         27  H    CARTESIAN Z     2.222620     -1.436122  KCAL/ANGSTROM
     82         28  H    CARTESIAN X     2.001440     -2.279840  KCAL/ANGSTROM
     83         28  H    CARTESIAN Y     3.680280      0.742444  KCAL/ANGSTROM
     84         28  H    CARTESIAN Z     1.883030      5.264446  KCAL/ANGSTROM
     85         29  H    CARTESIAN X     4.158330     -0.452060  KCAL/ANGSTROM
     86         29  H    CARTESIAN Y     0.514330      0.349624  KCAL/ANGSTROM
     87         29  H    CARTESIAN Z    -0.094880     -0.010461  KCAL/ANGSTROM
     88         30  H    CARTESIAN X     3.228410     -0.971611  KCAL/ANGSTROM
     89         30  H    CARTESIAN Y    -0.591250      1.080091  KCAL/ANGSTROM
     90         30  H    CARTESIAN Z    -1.120930      0.210421  KCAL/ANGSTROM
     91         31  H    CARTESIAN X     3.250560     -0.881445  KCAL/ANGSTROM
     92         31  H    CARTESIAN Y    -0.819110      0.985391  KCAL/ANGSTROM
     93         31  H    CARTESIAN Z     0.634910      0.115914  KCAL/ANGSTROM




   ATOM   CHEMICAL          X               Y               Z
  NUMBER   SYMBOL      (ANGSTROMS)     (ANGSTROMS)     (ANGSTROMS)
 
     1       C          0.00003000  *  -2.02587000  *  -0.86887000  *
     2       C          0.00007000  *  -0.76733000  *  -1.47853000  *
     3       C          0.00002000  *   0.35623000  *  -0.64340000  *
     4       C         -0.00002000  *   0.25983000  *   0.74851000  *
     5       C         -0.00006000  *  -1.01835000  *   1.33930000  *
     6       C          0.00002000  *  -2.15243000  *   0.51882000  *
     7       C         -0.00005000  *   1.58691000  *   1.26022000  *
     8       C         -0.00002000  *   2.45035000  *   0.18853000  *
     9       N          0.00003000  *   1.69714000  *  -0.95569000  *
    10       H          0.00008000  *  -2.91957000  *  -1.48874000  *
    11       H          0.00004000  *  -0.67274000  *  -2.55921000  *
    12       H         -0.00009000  *  -1.12486000  *   2.41982000  *
    13       H          0.00002000  *  -3.14092000  *   0.97123000  *
    14       H         -0.00002000  *   1.87539000  *   2.30306000  *
    15       H         -0.00006000  *   3.53093000  *   0.14157000  *
    16       H          0.00000000  *   2.06528000  *  -1.89661000  *
    17       C          1.95451000  *   1.90872000  *  -1.11640000  *
    18       C          1.99935000  *   0.82423000  *  -0.03401000  *
    19       C          1.99995000  *   1.58691000  *   1.26022000  *
    20       C          1.99942000  *   2.91528000  *   1.12749000  *
    21       C          1.98890000  *   3.17859000  *  -0.31629000  *
    22       O          1.99707000  *   4.30727000  *  -0.78244000  *
    23       C          3.23063000  *  -0.06566000  *  -0.16010000  *
    24       H          1.01940000  *   1.86281000  *  -1.68301000  *
    25       H          2.81008000  *   1.87141000  *  -1.79679000  *
    26       H          1.09984000  *   0.20012000  *  -0.09393000  *
    27       H          1.99952000  *   1.08932000  *   2.22262000  *
    28       H          2.00144000  *   3.68028000  *   1.88303000  *
    29       H          4.15833000  *   0.51433000  *  -0.09488000  *
    30       H          3.22841000  *  -0.59125000  *  -1.12093000  *
    31       H          3.25056000  *  -0.81911000  *   0.63491000  *

                             CARTESIAN COORDINATES

   1    C        0.000030000    -2.025870000    -0.868870000
   2    C        0.000070000    -0.767330000    -1.478530000
   3    C        0.000020000     0.356230000    -0.643400000
   4    C       -0.000020000     0.259830000     0.748510000
   5    C       -0.000060000    -1.018350000     1.339300000
   6    C        0.000020000    -2.152430000     0.518820000
   7    C       -0.000050000     1.586910000     1.260220000
   8    C       -0.000020000     2.450350000     0.188530000
   9    N        0.000030000     1.697140000    -0.955690000
  10    H        0.000080000    -2.919570000    -1.488740000
  11    H        0.000040000    -0.672740000    -2.559210000
  12    H       -0.000090000    -1.124860000     2.419820000
  13    H        0.000020000    -3.140920000     0.971230000
  14    H       -0.000020000     1.875390000     2.303060000
  15    H       -0.000060000     3.530930000     0.141570000
  16    H        0.000000000     2.065280000    -1.896610000
  17    C        1.954510000     1.908720000    -1.116400000
  18    C        1.999350000     0.824230000    -0.034010000
  19    C        1.999950000     1.586910000     1.260220000
  20    C        1.999420000     2.915280000     1.127490000
  21    C        1.988900000     3.178590000    -0.316290000
  22    O        1.997070000     4.307270000    -0.782440000
  23    C        3.230630000    -0.065660000    -0.160100000
  24    H        1.019400000     1.862810000    -1.683010000
  25    H        2.810080000     1.871410000    -1.796790000
  26    H        1.099840000     0.200120000    -0.093930000
  27    H        1.999520000     1.089320000     2.222620000
  28    H        2.001440000     3.680280000     1.883030000
  29    H        4.158330000     0.514330000    -0.094880000
  30    H        3.228410000    -0.591250000    -1.120930000
  31    H        3.250560000    -0.819110000     0.634910000


           Empirical Formula: C14 H15 N O  =    31 atoms



      MOLECULAR POINT GROUP   :   C1  


                  EIGENVALUES  
 -42.01665 -33.31765 -31.35405 -29.90935 -28.75668 -27.31825 -25.99108 -24.88803
 -24.15313 -22.70377 -22.46379 -21.13589 -20.77004 -19.94490 -18.87744 -18.24202
 -17.47395 -16.75618 -16.58910 -16.32354 -15.63018 -15.08616 -14.80067 -14.61286
 -14.16289 -13.98925 -13.93471 -13.64523 -13.13763 -13.02976 -12.86082 -12.59415
 -12.42174 -12.19272 -11.80006 -11.32135 -10.64698 -10.01204  -9.83774  -8.35538
  -8.01202  -0.93021  -0.13958  -0.05556   1.33951   1.51160   1.91163   2.06026
   3.16370   3.31951   3.42367   3.71562   3.94813   4.14689   4.22179   4.47874
   4.51988   4.63797   4.69134   4.71737   4.93023   5.08533   5.38306   5.43132
   5.49490   5.54649   5.65439   5.76652   5.83848   5.84821   5.86909   5.88387
   5.99418   6.02676   6.08022   6.39173   6.47419   6.73558   7.00567


              NET ATOMIC CHARGES AND DIPOLE CONTRIBUTIONS

  ATOM NO.   TYPE          CHARGE      No. of ELECS.   s-Pop       p-Pop       
    1          C          -0.095404        4.0954     1.08260     3.01280
    2          C          -0.252727        4.2527     1.06926     3.18347
    3          C           0.105068        3.8949     1.02570     2.86923
    4          C          -0.083744        4.0837     1.04404     3.03970
    5          C          -0.113881        4.1139     1.08349     3.03039
    6          C          -0.201055        4.2011     1.07850     3.12255
    7          C          -0.269128        4.2691     1.06731     3.20181
    8          C          -0.013342        4.0133     1.09031     2.92303
    9          N          -0.324888        5.3249     1.52868     3.79621
   10          H           0.153021        0.8470     0.84698
   11          H           0.164903        0.8351     0.83510
   12          H           0.158113        0.8419     0.84189
   13          H           0.157029        0.8430     0.84297
   14          H           0.186200        0.8138     0.81380
   15          H           0.210704        0.7893     0.78930
   16          H           0.351100        0.6489     0.64890
   17          C          -0.495554        4.4956     1.09438     3.40117
   18          C          -0.264821        4.2648     1.09412     3.17070
   19          C           0.056827        3.9432     1.11268     2.83049
   20          C          -0.452082        4.4521     1.08612     3.36597
   21          C           0.502089        3.4979     1.11805     2.37986
   22          O          -0.500798        6.5008     1.88370     4.61710
   23          C          -0.434842        4.4348     1.05174     3.38310
   24          H           0.234667        0.7653     0.76533
   25          H           0.173281        0.8267     0.82672
   26          H           0.277709        0.7223     0.72229
   27          H           0.145615        0.8544     0.85438
   28          H           0.183765        0.8162     0.81624
   29          H           0.149672        0.8503     0.85033
   30          H           0.147324        0.8527     0.85268
   31          H           0.145177        0.8548     0.85482
 DIPOLE           X         Y         Z       TOTAL
 POINT-CHG.    -2.085    -4.187    -0.032     4.677
 HYBRID         0.706     0.678    -0.761     1.240
 SUM           -1.379    -3.509    -0.793     3.852


          ATOMIC ORBITAL ELECTRON POPULATIONS

     Atom    s        px        py        pz   
    1  C   1.08260   0.96458   1.03524   1.01298
    2  C   1.06926   1.13279   0.97316   1.07751
    3  C   1.02570   1.02905   0.84111   0.99908
    4  C   1.04404   1.08325   0.99202   0.96444
    5  C   1.08349   0.98679   0.96300   1.08061
    6  C   1.07850   1.05573   1.06576   1.00107
    7  C   1.06731   1.15190   0.96762   1.08229
    8  C   1.09031   1.03683   1.03456   0.85164
    9  N   1.52868   1.51809   1.12983   1.14829
   10  H   0.84698
   11  H   0.83510
   12  H   0.84189
   13  H   0.84297
   14  H   0.81380
   15  H   0.78930
   16  H   0.64890
   17  C   1.09438   1.21993   1.05915   1.12209
   18  C   1.09412   1.15619   1.04975   0.96477
   19  C   1.11268   0.77586   1.01162   1.04301
   20  C   1.08612   1.24191   1.05418   1.06987
   21  C   1.11805   0.64587   0.83598   0.89801
   22  O   1.88370   1.44533   1.34882   1.82296
   23  C   1.05174   1.08387   1.12531   1.17391
   24  H   0.76533
   25  H   0.82672
   26  H   0.72229
   27  H   0.85438
   28  H   0.81624
   29  H   0.85033
   30  H   0.85268
   31  H   0.85482

 **********************
 *                    *
 * JOB ENDED NORMALLY *
 *                    *
 **********************



 TOTAL JOB TIME:             0.07 SECONDS

 == MOPAC DONE ==
