 *******************************************************************************
 ** Site#: 36969        For non-commercial use only    Version 21.051W 64BITS **
 *******************************************************************************
 ** Cite this program as: MOPAC2016, Version: 21.051W, James J. P. Stewart,   **
 ** Stewart Computational Chemistry, web: HTTP://OpenMOPAC.net. Days left: 361**
 *******************************************************************************
 **                                                                           **
 **                                MOPAC2016                                  **
 **                                                                           **
 *******************************************************************************

                              RM1 CALCULATION RESULTS

 *******************************************************************************
 *  CALCULATION DONE:                                Wed Feb 24 12:24:17 2021  *
 *  RM1        - The RM1 Hamiltonian to be used
 *  1SCF       - DO 1 SCF AND THEN STOP 
 *  T=         - A TIME OF 172800.0 SECONDS REQUESTED
 *  DUMP=N     - RESTART FILE WRITTEN EVERY 7200.0 SECONDS REQUESTED
 *  RELSCF     - DEFAULT SCF CRITERION MULTIPLIED BY 0.0001
 *              (DEFAULT SCF CRITERION = 0.00010)
 *  GRADIENTS  - ALL GRADIENTS TO BE PRINTED
 *******************************************************************************
RM1 1SCF GRADIENTS RELSCF=0.0001
 Title: ASE calculation

   ATOM   CHEMICAL          X               Y               Z
  NUMBER   SYMBOL      (ANGSTROMS)     (ANGSTROMS)     (ANGSTROMS)
 
     1       C         -0.70204475  *  -2.01176250  *  -0.99542590  *
     2       C         -0.48966815  *  -0.80352335  *  -1.62251076  *
     3       C         -0.32821185  *   0.31512676  *  -0.79690081  *
     4       C         -0.34140326  *   0.22139949  *   0.61684196  *
     5       C         -0.58183059  *  -1.01466036  *   1.21773305  *
     6       C         -0.75971072  *  -2.11631253  *   0.40796889  *
     7       C         -0.09349000  *   1.54752000  *   1.13554000  *
     8       C         -0.11050366  *   2.40930492  *   0.03490038  *
     9       N         -0.18258624  *   1.66469593  *  -1.13702316  *
    10       H         -0.82629347  *  -2.91736623  *  -1.59680842  *
    11       H         -0.43496538  *  -0.71918114  *  -2.70969718  *
    12       H         -0.63539953  *  -1.09832525  *   2.30550777  *
    13       H         -0.94499287  *  -3.09784158  *   0.85504355  *
    14       H         -0.31681603  *   1.83610368  *   2.16027962  *
    15       H         -0.02432306  *   3.49379158  *   0.02915942  *
    16       H         -0.07307186  *   2.02273432  *  -2.07221517  *
    17       C          2.67442585  *  -0.77760914  *   1.75557102  *
    18       C          2.14804825  *   0.45694970  *   2.51150228  *
    19       C          1.93813000  *   1.50683000  *   1.43468000  *
    20       C          2.46431521  *   1.09611295  *   0.25424846  *
    21       C          2.90064252  *  -0.29829659  *   0.33568216  *
    22       O          3.38524131  *  -0.96586553  *  -0.55653558  *
    23       C          3.17647111  *   0.99463006  *   3.50147180  *
    24       H          1.94989089  *  -1.61482443  *   1.76345132  *
    25       H          3.60007479  *  -1.19742270  *   2.19159299  *
    26       H          1.20753602  *   0.21273452  *   3.05958500  *
    27       H          1.84639338  *   2.55608623  *   1.73558702  *
    28       H          2.57319408  *   1.67582594  *  -0.65462222  *
    29       H          2.82605538  *   1.91276448  *   3.99646876  *
    30       H          3.39763040  *   0.27207451  *   4.29941276  *
    31       H          4.13608022  *   1.24118435  *   3.02208861  *
 


          CARTESIAN COORDINATES 

    NO.       ATOM           X           Y           Z

     1         C         -0.7020     -2.0118     -0.9954
     2         C         -0.4897     -0.8035     -1.6225
     3         C         -0.3282      0.3151     -0.7969
     4         C         -0.3414      0.2214      0.6168
     5         C         -0.5818     -1.0147      1.2177
     6         C         -0.7597     -2.1163      0.4080
     7         C         -0.0935      1.5475      1.1355
     8         C         -0.1105      2.4093      0.0349
     9         N         -0.1826      1.6647     -1.1370
    10         H         -0.8263     -2.9174     -1.5968
    11         H         -0.4350     -0.7192     -2.7097
    12         H         -0.6354     -1.0983      2.3055
    13         H         -0.9450     -3.0978      0.8550
    14         H         -0.3168      1.8361      2.1603
    15         H         -0.0243      3.4938      0.0292
    16         H         -0.0731      2.0227     -2.0722
    17         C          2.6744     -0.7776      1.7556
    18         C          2.1480      0.4569      2.5115
    19         C          1.9381      1.5068      1.4347
    20         C          2.4643      1.0961      0.2542
    21         C          2.9006     -0.2983      0.3357
    22         O          3.3852     -0.9659     -0.5565
    23         C          3.1765      0.9946      3.5015
    24         H          1.9499     -1.6148      1.7635
    25         H          3.6001     -1.1974      2.1916
    26         H          1.2075      0.2127      3.0596
    27         H          1.8464      2.5561      1.7356
    28         H          2.5732      1.6758     -0.6546
    29         H          2.8261      1.9128      3.9965
    30         H          3.3976      0.2721      4.2994
    31         H          4.1361      1.2412      3.0221

  H: (RM1): G.B. ROCHA, R.O. FREIRE, A.M.SIMAS, J.J.P. STEWART, J. COMP. CHEM. 27, 1101 (2006)
  C: (RM1): G.B. ROCHA, R.O. FREIRE, A.M.SIMAS, J.J.P. STEWART, J. COMP. CHEM. 27, 1101 (2006)
  N: (RM1): G.B. ROCHA, R.O. FREIRE, A.M.SIMAS, J.J.P. STEWART, J. COMP. CHEM. 27, 1101 (2006)
  O: (RM1): G.B. ROCHA, R.O. FREIRE, A.M.SIMAS, J.J.P. STEWART, J. COMP. CHEM. 27, 1101 (2006)

           Empirical Formula: C14 H15 N O  =    31 atoms



      MOLECULAR POINT GROUP   :   C1  


      RHF CALCULATION, NO. OF DOUBLY OCCUPIED LEVELS = 41

  SCF CRITERION =    0.1000E-07

 -------------------------------------------------------------------------------
 RM1 1SCF GRADIENTS RELSCF=0.0001
 Title: ASE calculation



     1SCF WAS SPECIFIED, SO BFGS WAS NOT USED                 
     SCF FIELD WAS ACHIEVED                                   


                              RM1 CALCULATION
                                                       MOPAC2016 (Version: 21.051W)
                                                       Wed Feb 24 12:24:17 2021
                                                       No. of days remaining = 361




          FINAL HEAT OF FORMATION =         26.50360 KCAL/MOL =     110.89108 KJ/MOL


          TOTAL ENERGY            =      -2490.65188 EV
          ELECTRONIC ENERGY       =     -16578.80558 EV  POINT GROUP:     C1  
          CORE-CORE REPULSION     =      14088.15369 EV
          COSMO AREA              =        230.38 SQUARE ANGSTROMS
          COSMO VOLUME            =        268.13 CUBIC ANGSTROMS

          GRADIENT NORM           =         83.77018 = 15.04557 PER ATOM
          IONIZATION POTENTIAL    =          7.984805 EV
          HOMO LUMO ENERGIES (EV) =         -7.985 -0.001
          NO. OF FILLED LEVELS    =         41
          MOLECULAR WEIGHT        =        213.2786

          MOLECULAR DIMENSIONS (Angstroms)

            Atom       Atom       Distance
            H    29    H    10     8.24346
            H    15    H    25     6.30196
            H    28    H    12     4.90034


          SCF CALCULATIONS        =          1
 
          WALL-CLOCK TIME         =          0.078 SECONDS
          COMPUTATION TIME        =          0.125 SECONDS

          LARGEST ATOMIC GRADIENTS

          Atom     Label                     Cartesian Gradients           Cartesian Coordinates       |Gradient|
                                           X          Y          Z        X          Y          Z

            19       C                 -58.859     -1.085     -7.066    1.93813    1.50683    1.43468     59.291
             7       C                  58.526      1.623      8.011   -0.09349    1.54752    1.13554     59.094
            14       H                   0.016     -0.670     -0.826   -0.31682    1.83610    2.16028      1.064
            27       H                  -0.413     -0.718     -0.641    1.84639    2.55609    1.73559      1.047
            31       H                   0.825      0.519     -0.003    4.13608    1.24118    3.02209      0.974
            21       C                  -0.853     -0.289     -0.209    2.90064   -0.29830    0.33568      0.924
            16       H                   0.587      0.571      0.234   -0.07307    2.02273   -2.07222      0.852
            15       H                   0.008     -0.270      0.697   -0.02432    3.49379    0.02916      0.747
            26       H                  -0.251     -0.616      0.222    1.20754    0.21273    3.05958      0.701
            30       H                   0.177      0.553      0.193    3.39763    0.27207    4.29941      0.612



       FINAL  POINT  AND  DERIVATIVES

   PARAMETER     ATOM    TYPE            VALUE        GRADIENT
      1          1  C    CARTESIAN X    -0.702045     -0.412419  KCAL/ANGSTROM
      2          1  C    CARTESIAN Y    -2.011763      0.178281  KCAL/ANGSTROM
      3          1  C    CARTESIAN Z    -0.995426      0.171910  KCAL/ANGSTROM
      4          2  C    CARTESIAN X    -0.489668     -0.209253  KCAL/ANGSTROM
      5          2  C    CARTESIAN Y    -0.803523      0.218629  KCAL/ANGSTROM
      6          2  C    CARTESIAN Z    -1.622511     -0.186261  KCAL/ANGSTROM
      7          3  C    CARTESIAN X    -0.328212      0.061132  KCAL/ANGSTROM
      8          3  C    CARTESIAN Y     0.315127     -0.197224  KCAL/ANGSTROM
      9          3  C    CARTESIAN Z    -0.796901      0.264329  KCAL/ANGSTROM
     10          4  C    CARTESIAN X    -0.341403      0.284568  KCAL/ANGSTROM
     11          4  C    CARTESIAN Y     0.221399      0.211048  KCAL/ANGSTROM
     12          4  C    CARTESIAN Z     0.616842      0.327214  KCAL/ANGSTROM
     13          5  C    CARTESIAN X    -0.581831      0.074759  KCAL/ANGSTROM
     14          5  C    CARTESIAN Y    -1.014660      0.152501  KCAL/ANGSTROM
     15          5  C    CARTESIAN Z     1.217733      0.104854  KCAL/ANGSTROM
     16          6  C    CARTESIAN X    -0.759711      0.048780  KCAL/ANGSTROM
     17          6  C    CARTESIAN Y    -2.116313     -0.001614  KCAL/ANGSTROM
     18          6  C    CARTESIAN Z     0.407969      0.311839  KCAL/ANGSTROM
     19          7  C    CARTESIAN X    -0.093490     58.525870  KCAL/ANGSTROM
     20          7  C    CARTESIAN Y     1.547520      1.622842  KCAL/ANGSTROM
     21          7  C    CARTESIAN Z     1.135540      8.010936  KCAL/ANGSTROM
     22          8  C    CARTESIAN X    -0.110504     -0.111977  KCAL/ANGSTROM
     23          8  C    CARTESIAN Y     2.409305     -0.276451  KCAL/ANGSTROM
     24          8  C    CARTESIAN Z     0.034900     -0.304048  KCAL/ANGSTROM
     25          9  N    CARTESIAN X    -0.182586     -0.046866  KCAL/ANGSTROM
     26          9  N    CARTESIAN Y     1.664696     -0.318756  KCAL/ANGSTROM
     27          9  N    CARTESIAN Z    -1.137023     -0.004055  KCAL/ANGSTROM
     28         10  H    CARTESIAN X    -0.826293      0.173986  KCAL/ANGSTROM
     29         10  H    CARTESIAN Y    -2.917366      0.165872  KCAL/ANGSTROM
     30         10  H    CARTESIAN Z    -1.596808      0.081573  KCAL/ANGSTROM
     31         11  H    CARTESIAN X    -0.434965      0.454663  KCAL/ANGSTROM
     32         11  H    CARTESIAN Y    -0.719181     -0.130288  KCAL/ANGSTROM
     33         11  H    CARTESIAN Z    -2.709697     -0.355366  KCAL/ANGSTROM
     34         12  H    CARTESIAN X    -0.635400      0.270890  KCAL/ANGSTROM
     35         12  H    CARTESIAN Y    -1.098325     -0.038799  KCAL/ANGSTROM
     36         12  H    CARTESIAN Z     2.305508     -0.316422  KCAL/ANGSTROM
     37         13  H    CARTESIAN X    -0.944993      0.151743  KCAL/ANGSTROM
     38         13  H    CARTESIAN Y    -3.097842     -0.459104  KCAL/ANGSTROM
     39         13  H    CARTESIAN Z     0.855044      0.210347  KCAL/ANGSTROM
     40         14  H    CARTESIAN X    -0.316816      0.016198  KCAL/ANGSTROM
     41         14  H    CARTESIAN Y     1.836104     -0.670393  KCAL/ANGSTROM
     42         14  H    CARTESIAN Z     2.160280     -0.826495  KCAL/ANGSTROM
     43         15  H    CARTESIAN X    -0.024323      0.007766  KCAL/ANGSTROM
     44         15  H    CARTESIAN Y     3.493792     -0.269989  KCAL/ANGSTROM
     45         15  H    CARTESIAN Z     0.029159      0.696640  KCAL/ANGSTROM
     46         16  H    CARTESIAN X    -0.073072      0.587453  KCAL/ANGSTROM
     47         16  H    CARTESIAN Y     2.022734      0.570969  KCAL/ANGSTROM
     48         16  H    CARTESIAN Z    -2.072215      0.233717  KCAL/ANGSTROM
     49         17  C    CARTESIAN X     2.674426     -0.003496  KCAL/ANGSTROM
     50         17  C    CARTESIAN Y    -0.777609      0.026204  KCAL/ANGSTROM
     51         17  C    CARTESIAN Z     1.755571     -0.178244  KCAL/ANGSTROM
     52         18  C    CARTESIAN X     2.148048     -0.278907  KCAL/ANGSTROM
     53         18  C    CARTESIAN Y     0.456950     -0.426583  KCAL/ANGSTROM
     54         18  C    CARTESIAN Z     2.511502     -0.133129  KCAL/ANGSTROM
     55         19  C    CARTESIAN X     1.938130    -58.858957  KCAL/ANGSTROM
     56         19  C    CARTESIAN Y     1.506830     -1.085314  KCAL/ANGSTROM
     57         19  C    CARTESIAN Z     1.434680     -7.065899  KCAL/ANGSTROM
     58         20  C    CARTESIAN X     2.464315     -0.083867  KCAL/ANGSTROM
     59         20  C    CARTESIAN Y     1.096113      0.087487  KCAL/ANGSTROM
     60         20  C    CARTESIAN Z     0.254248      0.105899  KCAL/ANGSTROM
     61         21  C    CARTESIAN X     2.900643     -0.852708  KCAL/ANGSTROM
     62         21  C    CARTESIAN Y    -0.298297     -0.289241  KCAL/ANGSTROM
     63         21  C    CARTESIAN Z     0.335682     -0.209400  KCAL/ANGSTROM
     64         22  O    CARTESIAN X     3.385241     -0.101454  KCAL/ANGSTROM
     65         22  O    CARTESIAN Y    -0.965866      0.495663  KCAL/ANGSTROM
     66         22  O    CARTESIAN Z    -0.556536      0.296905  KCAL/ANGSTROM
     67         23  C    CARTESIAN X     3.176471      0.154296  KCAL/ANGSTROM
     68         23  C    CARTESIAN Y     0.994630      0.159926  KCAL/ANGSTROM
     69         23  C    CARTESIAN Z     3.501472     -0.384437  KCAL/ANGSTROM
     70         24  H    CARTESIAN X     1.949891      0.271199  KCAL/ANGSTROM
     71         24  H    CARTESIAN Y    -1.614824      0.416283  KCAL/ANGSTROM
     72         24  H    CARTESIAN Z     1.763451     -0.233869  KCAL/ANGSTROM
     73         25  H    CARTESIAN X     3.600075     -0.225011  KCAL/ANGSTROM
     74         25  H    CARTESIAN Y    -1.197423     -0.188690  KCAL/ANGSTROM
     75         25  H    CARTESIAN Z     2.191593     -0.288486  KCAL/ANGSTROM
     76         26  H    CARTESIAN X     1.207536     -0.251357  KCAL/ANGSTROM
     77         26  H    CARTESIAN Y     0.212735     -0.616259  KCAL/ANGSTROM
     78         26  H    CARTESIAN Z     3.059585      0.221570  KCAL/ANGSTROM
     79         27  H    CARTESIAN X     1.846393     -0.413419  KCAL/ANGSTROM
     80         27  H    CARTESIAN Y     2.556086     -0.717596  KCAL/ANGSTROM
     81         27  H    CARTESIAN Z     1.735587     -0.641004  KCAL/ANGSTROM
     82         28  H    CARTESIAN X     2.573194     -0.087479  KCAL/ANGSTROM
     83         28  H    CARTESIAN Y     1.675826     -0.145486  KCAL/ANGSTROM
     84         28  H    CARTESIAN Z    -0.654622      0.157080  KCAL/ANGSTROM
     85         29  H    CARTESIAN X     2.826055     -0.147642  KCAL/ANGSTROM
     86         29  H    CARTESIAN Y     1.912764      0.454153  KCAL/ANGSTROM
     87         29  H    CARTESIAN Z     3.996469     -0.257692  KCAL/ANGSTROM
     88         30  H    CARTESIAN X     3.397630      0.176859  KCAL/ANGSTROM
     89         30  H    CARTESIAN Y     0.272075      0.552808  KCAL/ANGSTROM
     90         30  H    CARTESIAN Z     4.299413      0.193349  KCAL/ANGSTROM
     91         31  H    CARTESIAN X     4.136080      0.824648  KCAL/ANGSTROM
     92         31  H    CARTESIAN Y     1.241184      0.519119  KCAL/ANGSTROM
     93         31  H    CARTESIAN Z     3.022089     -0.003355  KCAL/ANGSTROM




   ATOM   CHEMICAL          X               Y               Z
  NUMBER   SYMBOL      (ANGSTROMS)     (ANGSTROMS)     (ANGSTROMS)
 
     1       C         -0.70204475  *  -2.01176250  *  -0.99542590  *
     2       C         -0.48966815  *  -0.80352335  *  -1.62251076  *
     3       C         -0.32821185  *   0.31512676  *  -0.79690081  *
     4       C         -0.34140326  *   0.22139949  *   0.61684196  *
     5       C         -0.58183059  *  -1.01466036  *   1.21773305  *
     6       C         -0.75971072  *  -2.11631253  *   0.40796889  *
     7       C         -0.09349000  *   1.54752000  *   1.13554000  *
     8       C         -0.11050366  *   2.40930492  *   0.03490038  *
     9       N         -0.18258624  *   1.66469593  *  -1.13702316  *
    10       H         -0.82629347  *  -2.91736623  *  -1.59680842  *
    11       H         -0.43496538  *  -0.71918114  *  -2.70969718  *
    12       H         -0.63539953  *  -1.09832525  *   2.30550777  *
    13       H         -0.94499287  *  -3.09784158  *   0.85504355  *
    14       H         -0.31681603  *   1.83610368  *   2.16027962  *
    15       H         -0.02432306  *   3.49379158  *   0.02915942  *
    16       H         -0.07307186  *   2.02273432  *  -2.07221517  *
    17       C          2.67442585  *  -0.77760914  *   1.75557102  *
    18       C          2.14804825  *   0.45694970  *   2.51150228  *
    19       C          1.93813000  *   1.50683000  *   1.43468000  *
    20       C          2.46431521  *   1.09611295  *   0.25424846  *
    21       C          2.90064252  *  -0.29829659  *   0.33568216  *
    22       O          3.38524131  *  -0.96586553  *  -0.55653558  *
    23       C          3.17647111  *   0.99463006  *   3.50147180  *
    24       H          1.94989089  *  -1.61482443  *   1.76345132  *
    25       H          3.60007479  *  -1.19742270  *   2.19159299  *
    26       H          1.20753602  *   0.21273452  *   3.05958500  *
    27       H          1.84639338  *   2.55608623  *   1.73558702  *
    28       H          2.57319408  *   1.67582594  *  -0.65462222  *
    29       H          2.82605538  *   1.91276448  *   3.99646876  *
    30       H          3.39763040  *   0.27207451  *   4.29941276  *
    31       H          4.13608022  *   1.24118435  *   3.02208861  *

                             CARTESIAN COORDINATES

   1    C       -0.702044748    -2.011762501    -0.995425902
   2    C       -0.489668149    -0.803523350    -1.622510760
   3    C       -0.328211852     0.315126761    -0.796900813
   4    C       -0.341403264     0.221399495     0.616841963
   5    C       -0.581830585    -1.014660358     1.217733050
   6    C       -0.759710716    -2.116312526     0.407968893
   7    C       -0.093490000     1.547520000     1.135540000
   8    C       -0.110503660     2.409304917     0.034900376
   9    N       -0.182586240     1.664695928    -1.137023161
  10    H       -0.826293472    -2.917366231    -1.596808423
  11    H       -0.434965376    -0.719181144    -2.709697179
  12    H       -0.635399532    -1.098325250     2.305507765
  13    H       -0.944992871    -3.097841579     0.855043547
  14    H       -0.316816034     1.836103678     2.160279615
  15    H       -0.024323060     3.493791577     0.029159416
  16    H       -0.073071858     2.022734325    -2.072215175
  17    C        2.674425850    -0.777609138     1.755571015
  18    C        2.148048245     0.456949702     2.511502279
  19    C        1.938130000     1.506830000     1.434680000
  20    C        2.464315214     1.096112951     0.254248463
  21    C        2.900642521    -0.298296591     0.335682157
  22    O        3.385241314    -0.965865534    -0.556535580
  23    C        3.176471113     0.994630058     3.501471800
  24    H        1.949890892    -1.614824428     1.763451323
  25    H        3.600074791    -1.197422702     2.191592985
  26    H        1.207536017     0.212734517     3.059584995
  27    H        1.846393384     2.556086225     1.735587017
  28    H        2.573194077     1.675825940    -0.654622216
  29    H        2.826055376     1.912764477     3.996468757
  30    H        3.397630404     0.272074512     4.299412760
  31    H        4.136080217     1.241184345     3.022088610


           Empirical Formula: C14 H15 N O  =    31 atoms



      MOLECULAR POINT GROUP   :   C1  


                  EIGENVALUES  
 -39.94866 -37.54556 -35.26650 -35.11284 -31.37902 -29.53845 -28.78255 -28.11609
 -26.97116 -23.75589 -22.77672 -21.67672 -21.11595 -19.82290 -18.79610 -18.47938
 -16.82547 -16.51722 -16.02221 -15.61412 -15.18930 -14.72429 -14.52147 -14.49414
 -14.17980 -13.92502 -13.72075 -13.49375 -13.15593 -13.01029 -12.45947 -12.23007
 -12.09670 -11.93167 -11.78699 -11.70220 -10.84601  -9.80549  -9.39516  -8.82961
  -7.98481  -0.00055   0.65187   0.94751   1.85951   1.89919   2.65366   3.17130
   3.81792   3.87306   3.88666   4.00683   4.16802   4.35286   4.39813   4.50550
   4.53695   4.55824   4.62011   4.69532   4.86148   4.88252   4.93193   5.05090
   5.09772   5.13926   5.19851   5.33982   5.42840   5.64668   5.67817   5.70341
   5.89100   5.95552   6.06323   6.09992   6.39723   6.49010   7.61023


              NET ATOMIC CHARGES AND DIPOLE CONTRIBUTIONS

  ATOM NO.   TYPE          CHARGE      No. of ELECS.   s-Pop       p-Pop       
    1          C          -0.065869        4.0659     1.17639     2.88948
    2          C          -0.133514        4.1335     1.16947     2.96405
    3          C           0.059844        3.9402     1.15265     2.78751
    4          C          -0.079422        4.0794     1.16367     2.91575
    5          C          -0.060138        4.0601     1.16949     2.89065
    6          C          -0.140352        4.1404     1.17842     2.96194
    7          C          -0.193043        4.1930     1.18844     3.00460
    8          C          -0.013212        4.0132     1.18259     2.83063
    9          N          -0.261513        5.2615     1.47081     3.79071
   10          H           0.103946        0.8961     0.89605
   11          H           0.115075        0.8849     0.88493
   12          H           0.105170        0.8948     0.89483
   13          H           0.106343        0.8937     0.89366
   14          H           0.132512        0.8675     0.86749
   15          H           0.135452        0.8645     0.86455
   16          H           0.261519        0.7385     0.73848
   17          C          -0.223056        4.2231     1.18381     3.03924
   18          C          -0.050324        4.0503     1.17727     2.87305
   19          C           0.043124        3.9569     1.20259     2.75428
   20          C          -0.350036        4.3500     1.20113     3.14890
   21          C           0.335186        3.6648     1.19800     2.46682
   22          O          -0.340764        6.3408     1.90373     4.43703
   23          C          -0.185640        4.1856     1.15910     3.02654
   24          H           0.099965        0.9000     0.90004
   25          H           0.098729        0.9013     0.90127
   26          H           0.081576        0.9184     0.91842
   27          H           0.095515        0.9045     0.90449
   28          H           0.133446        0.8666     0.86655
   29          H           0.057566        0.9424     0.94243
   30          H           0.063334        0.9367     0.93667
   31          H           0.068581        0.9314     0.93142
 DIPOLE           X         Y         Z       TOTAL
 POINT-CHG.    -2.230     2.603     1.316     3.671
 HYBRID        -0.103     0.531    -0.233     0.589
 SUM           -2.332     3.134     1.083     4.054


          ATOMIC ORBITAL ELECTRON POPULATIONS

     Atom    s        px        py        pz   
    1  C   1.17639   0.97954   0.96393   0.94601
    2  C   1.16947   1.05589   0.92534   0.98282
    3  C   1.15265   1.02055   0.82581   0.94115
    4  C   1.16367   1.05398   0.94176   0.92001
    5  C   1.16949   0.98711   0.92069   0.98285
    6  C   1.17842   1.03605   0.98236   0.94352
    7  C   1.18844   1.10711   0.92566   0.97184
    8  C   1.18259   1.02822   0.95036   0.85204
    9  N   1.47081   1.61634   1.08357   1.09079
   10  H   0.89605
   11  H   0.88493
   12  H   0.89483
   13  H   0.89366
   14  H   0.86749
   15  H   0.86455
   16  H   0.73848
   17  C   1.18381   1.05050   0.99305   0.99569
   18  C   1.17727   0.98453   0.93997   0.94855
   19  C   1.20259   0.84471   0.96772   0.94185
   20  C   1.20113   1.11939   1.01012   1.01939
   21  C   1.19800   0.73183   0.86409   0.87090
   22  O   1.90373   1.35504   1.61960   1.46239
   23  C   1.15910   1.00388   1.02219   1.00047
   24  H   0.90004
   25  H   0.90127
   26  H   0.91842
   27  H   0.90449
   28  H   0.86655
   29  H   0.94243
   30  H   0.93667
   31  H   0.93142

 **********************
 *                    *
 * JOB ENDED NORMALLY *
 *                    *
 **********************



 TOTAL JOB TIME:             0.11 SECONDS

 == MOPAC DONE ==
