 Entering Gaussian System, Link 0=g09
 Input=TEST_TS.com
 Output=TEST_TS.log
 Initial command:
 C:\G09W\l1.exe .\gxx.inp TEST_TS.log /scrdir=.\
 Entering Link 1 = C:\G09W\l1.exe PID=     17048.
  
 Copyright (c) 1988,1990,1992,1993,1995,1998,2003,2009, Gaussian, Inc.
                  All Rights Reserved.
  
 This is part of the Gaussian(R) 09 program.  It is based on
 the Gaussian(R) 03 system (copyright 2003, Gaussian, Inc.),
 the Gaussian(R) 98 system (copyright 1998, Gaussian, Inc.),
 the Gaussian(R) 94 system (copyright 1995, Gaussian, Inc.),
 the Gaussian 92(TM) system (copyright 1992, Gaussian, Inc.),
 the Gaussian 90(TM) system (copyright 1990, Gaussian, Inc.),
 the Gaussian 88(TM) system (copyright 1988, Gaussian, Inc.),
 the Gaussian 86(TM) system (copyright 1986, Carnegie Mellon
 University), and the Gaussian 82(TM) system (copyright 1983,
 Carnegie Mellon University). Gaussian is a federally registered
 trademark of Gaussian, Inc.
  
 This software contains proprietary and confidential information,
 including trade secrets, belonging to Gaussian, Inc.
  
 This software is provided under written license and may be
 used, copied, transmitted, or stored only in accord with that
 written license.
  
 The following legend is applicable only to US Government
 contracts under FAR:
  
                    RESTRICTED RIGHTS LEGEND
  
 Use, reproduction and disclosure by the US Government is
 subject to restrictions as set forth in subparagraphs (a)
 and (c) of the Commercial Computer Software - Restricted
 Rights clause in FAR 52.227-19.
  
 Gaussian, Inc.
 340 Quinnipiac St., Bldg. 40, Wallingford CT 06492
  
  
 ---------------------------------------------------------------
 Warning -- This program may not be used in any manner that
 competes with the business of Gaussian, Inc. or will provide
 assistance to any competitor of Gaussian, Inc.  The licensee
 of this program is prohibited from giving any competitor of
 Gaussian, Inc. access to this program.  By using this program,
 the user acknowledges that Gaussian, Inc. is engaged in the
 business of creating and licensing software in the field of
 computational chemistry and represents and warrants to the
 licensee that it is not a competitor of Gaussian, Inc. and that
 it will not use this program in any manner prohibited above.
 ---------------------------------------------------------------
  

 Cite this work as:
 Gaussian 09, Revision A.02,
 M. J. Frisch, G. W. Trucks, H. B. Schlegel, G. E. Scuseria, 
 M. A. Robb, J. R. Cheeseman, G. Scalmani, V. Barone, B. Mennucci, 
 G. A. Petersson, H. Nakatsuji, M. Caricato, X. Li, H. P. Hratchian, 
 A. F. Izmaylov, J. Bloino, G. Zheng, J. L. Sonnenberg, M. Hada, 
 M. Ehara, K. Toyota, R. Fukuda, J. Hasegawa, M. Ishida, T. Nakajima, 
 Y. Honda, O. Kitao, H. Nakai, T. Vreven, J. A. Montgomery, Jr., 
 J. E. Peralta, F. Ogliaro, M. Bearpark, J. J. Heyd, E. Brothers, 
 K. N. Kudin, V. N. Staroverov, R. Kobayashi, J. Normand, 
 K. Raghavachari, A. Rendell, J. C. Burant, S. S. Iyengar, J. Tomasi, 
 M. Cossi, N. Rega, J. M. Millam, M. Klene, J. E. Knox, J. B. Cross, 
 V. Bakken, C. Adamo, J. Jaramillo, R. Gomperts, R. E. Stratmann, 
 O. Yazyev, A. J. Austin, R. Cammi, C. Pomelli, J. W. Ochterski, 
 R. L. Martin, K. Morokuma, V. G. Zakrzewski, G. A. Voth, 
 P. Salvador, J. J. Dannenberg, S. Dapprich, A. D. Daniels, 
 O. Farkas, J. B. Foresman, J. V. Ortiz, J. Cioslowski, 
 and D. J. Fox, Gaussian, Inc., Wallingford CT, 2009.
 
 ******************************************
 Gaussian 09:  IA32W-G09RevA.02 11-Jun-2009
                21-Mar-2021 
 ******************************************
 ------------
 #P UFF force
 ------------
 1/10=10,18=10,30=1,38=1,56=1,64=2/1,3;
 2/12=2,17=6,18=5,29=2,40=1/2;
 3/5=30,11=9,16=1,25=1,30=1,41=10200000,43=2,71=1/1;
 4/20=10,22=1,24=3/2;
 7/7=1,44=-1/16;
 1/10=10,18=10,30=1,64=2/3;
 99/12=1/99;
 Leave Link    1 at Sun Mar 21 15:12:34 2021, MaxMem=          0 cpu:       0.0
 (Enter C:\G09W\l101.exe)
 ------------------------------
 Gaussian input prepared by ASE
 ------------------------------
 Symbolic Z-matrix:
 Charge =  0 Multiplicity = 1
 C                    -0.23624  -2.09639  -0.93361 
 C                    -0.29333  -0.81384  -1.48226 
 C                    -0.52405   0.36459  -0.61809 
 C                    -0.46149   0.26611   0.71611 
 C                    -0.02902  -1.04974   1.40216 
 C                    -0.28249  -2.26458   0.52433 
 C                    -0.05534   1.64136   1.18635 
 C                    -0.25649   2.46623   0.06769 
 N                    -0.39266   1.73005  -1.0442 
 H                    -0.04491  -2.96083  -1.55399 
 H                    -0.07749  -0.68667  -2.5305 
 H                    -0.55972  -1.18871   2.37254 
 H                    -0.0599   -3.22488   0.96899 
 H                    -0.30179   2.01635   2.19141 
 H                    -0.10102   3.53907   0.0805 
 H                    -0.10853   2.0726   -1.99281 
 C                     2.2041   -0.75537   1.65096 
 C                     2.15989   0.54555   2.46871 
 C                     1.93507   1.5835    1.37326 
 C                     2.50349   0.99453   0.13005 
 C                     2.60601  -0.31945   0.27858 
 O                     2.7492   -1.06313  -0.66552 
 C                     3.39462   0.7772    3.31868 
 H                     1.10262  -0.96236   1.53688 
 H                     2.83999  -1.56245   2.07859 
 H                     1.30912   0.53774   3.17886 
 H                     2.17478   2.64812   1.55253 
 H                     2.50541   1.47275  -0.849 
 H                     3.33768   1.78247   3.78831 
 H                     3.37686   0.02258   4.13394 
 H                     4.32262   0.66349   2.72156 
 
 NAtoms=     31 NQM=     31 NQMF=      0 NMic=      0 NMicF=      0 NTot=     31.
                    Isotopes and Nuclear Properties:
 (Nuclear quadrupole moments (NQMom) in fm**2, nuclear magnetic moments (NMagM)
  in nuclear magnetons)

  Atom         1           2           3           4           5           6           7           8           9          10
 IAtWgt=          12          12          12          12          12          12          12          12          14           1
 AtmWgt=  12.0000000  12.0000000  12.0000000  12.0000000  12.0000000  12.0000000  12.0000000  12.0000000  14.0030740   1.0078250
 NucSpn=           0           0           0           0           0           0           0           0           2           1
 AtZEff=   0.0000000   0.0000000   0.0000000   0.0000000   0.0000000   0.0000000   0.0000000   0.0000000   0.0000000   0.0000000
 NQMom=    0.0000000   0.0000000   0.0000000   0.0000000   0.0000000   0.0000000   0.0000000   0.0000000   2.0440000   0.0000000
 NMagM=    0.0000000   0.0000000   0.0000000   0.0000000   0.0000000   0.0000000   0.0000000   0.0000000   0.4037610   2.7928460

  Atom        11          12          13          14          15          16          17          18          19          20
 IAtWgt=           1           1           1           1           1           1          12          12          12          12
 AtmWgt=   1.0078250   1.0078250   1.0078250   1.0078250   1.0078250   1.0078250  12.0000000  12.0000000  12.0000000  12.0000000
 NucSpn=           1           1           1           1           1           1           0           0           0           0
 AtZEff=   0.0000000   0.0000000   0.0000000   0.0000000   0.0000000   0.0000000   0.0000000   0.0000000   0.0000000   0.0000000
 NQMom=    0.0000000   0.0000000   0.0000000   0.0000000   0.0000000   0.0000000   0.0000000   0.0000000   0.0000000   0.0000000
 NMagM=    2.7928460   2.7928460   2.7928460   2.7928460   2.7928460   2.7928460   0.0000000   0.0000000   0.0000000   0.0000000

  Atom        21          22          23          24          25          26          27          28          29          30
 IAtWgt=          12          16          12           1           1           1           1           1           1           1
 AtmWgt=  12.0000000  15.9949146  12.0000000   1.0078250   1.0078250   1.0078250   1.0078250   1.0078250   1.0078250   1.0078250
 NucSpn=           0           0           0           1           1           1           1           1           1           1
 AtZEff=   0.0000000   0.0000000   0.0000000   0.0000000   0.0000000   0.0000000   0.0000000   0.0000000   0.0000000   0.0000000
 NQMom=    0.0000000   0.0000000   0.0000000   0.0000000   0.0000000   0.0000000   0.0000000   0.0000000   0.0000000   0.0000000
 NMagM=    0.0000000   0.0000000   0.0000000   2.7928460   2.7928460   2.7928460   2.7928460   2.7928460   2.7928460   2.7928460

  Atom        31
 IAtWgt=           1
 AtmWgt=   1.0078250
 NucSpn=           1
 AtZEff=   0.0000000
 NQMom=    0.0000000
 NMagM=    2.7928460
 Generating MM parameters.
 I=    9 IAn=  7 Valence= 4.
          JB=  1 J=    3 IAn=  6 IBT= 1 Dist= 1.44D+00
          JB=  2 J=    8 IAn=  6 IBT=12 Dist= 1.34D+00
          JB=  3 J=   16 IAn=  1 IBT= 1 Dist= 1.05D+00
 I=   21 IAn=  6 Valence= 5.
          JB=  1 J=   17 IAn=  6 IBT= 1 Dist= 1.49D+00
          JB=  2 J=   20 IAn=  6 IBT= 2 Dist= 1.33D+00
          JB=  3 J=   22 IAn=  8 IBT= 2 Dist= 1.21D+00
 I=   24 IAn=  1 Valence= 2.
          JB=  1 J=    5 IAn=  6 IBT= 1 Dist= 1.14D+00
          JB=  2 J=   17 IAn=  6 IBT= 1 Dist= 1.13D+00
 Include all MM classes

 MM sanity checks:
 All charges sum to:                0.00000000
 Charges of atoms sum to:           0.00000000
 MMInit generated parameter data with length LenPar=        3710.
 Leave Link  101 at Sun Mar 21 15:12:34 2021, MaxMem=   33554432 cpu:       0.0
 (Enter C:\G09W\l103.exe)

 GradGradGradGradGradGradGradGradGradGradGradGradGradGradGradGradGradGrad
 Berny optimization.
 Initialization pass.
 Trust Radius=1.00D-01 FncErr=1.00D-07 GrdErr=1.00D-07
 Number of steps in this run=   2 maximum allowed number of steps=   2.
 GradGradGradGradGradGradGradGradGradGradGradGradGradGradGradGradGradGrad

 Leave Link  103 at Sun Mar 21 15:12:34 2021, MaxMem=   33554432 cpu:       0.0
 (Enter C:\G09W\l202.exe)
 ---------------------------------------------------------------------------------------------------
                            Z-MATRIX (ANGSTROMS AND DEGREES)
   CD    Cent   Atom    N1       Length/X        N2       Alpha/Y        N3        Beta/Z          J
 ---------------------------------------------------------------------------------------------------
      1      1  C        0  -0.236239         -2.096391         -0.933613
      2      2  C        0  -0.293327         -0.813843         -1.482260
      3      3  C        0  -0.524054          0.364595         -0.618089
      4      4  C        0  -0.461487          0.266112          0.716105
      5      5  C        0  -0.029022         -1.049740          1.402156
      6      6  C        0  -0.282491         -2.264582          0.524333
      7      7  C        0  -0.055336          1.641357          1.186354
      8      8  C        0  -0.256488          2.466229          0.067686
      9      9  N        0  -0.392657          1.730047         -1.044196
     10     10  H        0  -0.044908         -2.960827         -1.553986
     11     11  H        0  -0.077486         -0.686674         -2.530499
     12     12  H        0  -0.559718         -1.188712          2.372536
     13     13  H        0  -0.059903         -3.224877          0.968990
     14     14  H        0  -0.301790          2.016347          2.191407
     15     15  H        0  -0.101023          3.539072          0.080501
     16     16  H        0  -0.108531          2.072603         -1.992808
     17     17  C        0   2.204103         -0.755370          1.650963
     18     18  C        0   2.159890          0.545554          2.468711
     19     19  C        0   1.935072          1.583504          1.373256
     20     20  C        0   2.503490          0.994532          0.130051
     21     21  C        0   2.606014         -0.319452          0.278575
     22     22  O        0   2.749197         -1.063128         -0.665519
     23     23  C        0   3.394622          0.777196          3.318677
     24     24  H        0   1.102616         -0.962358          1.536880
     25     25  H        0   2.839987         -1.562446          2.078593
     26     26  H        0   1.309120          0.537738          3.178860
     27     27  H        0   2.174784          2.648122          1.552529
     28     28  H        0   2.505406          1.472746         -0.849000
     29     29  H        0   3.337680          1.782473          3.788306
     30     30  H        0   3.376855          0.022580          4.133937
     31     31  H        0   4.322623          0.663492          2.721565
 ---------------------------------------------------------------------------------------------------
                         Z-Matrix orientation:                         
 ---------------------------------------------------------------------
 Center     Atomic      Atomic             Coordinates (Angstroms)
 Number     Number       Type             X           Y           Z
 ---------------------------------------------------------------------
      1          6    10061000       -0.236239   -2.096391   -0.933613
      2          6    10061000       -0.293327   -0.813843   -1.482260
      3          6    10061002       -0.524054    0.364595   -0.618089
      4          6    10061002       -0.461487    0.266112    0.716105
      5          6    10061003       -0.029022   -1.049740    1.402156
      6          6    10061002       -0.282491   -2.264582    0.524333
      7          6    10061000       -0.055336    1.641357    1.186354
      8          6    10061000       -0.256488    2.466229    0.067686
      9          7    10071000       -0.392657    1.730047   -1.044196
     10          1    10011000       -0.044908   -2.960827   -1.553986
     11          1    10011000       -0.077486   -0.686674   -2.530499
     12          1    10011000       -0.559718   -1.188712    2.372536
     13          1    10011000       -0.059903   -3.224877    0.968990
     14          1    10011000       -0.301790    2.016347    2.191407
     15          1    10011000       -0.101023    3.539072    0.080501
     16          1    10011000       -0.108531    2.072603   -1.992808
     17          6    10061003        2.204103   -0.755370    1.650963
     18          6    10061003        2.159890    0.545554    2.468711
     19          6    10061002        1.935072    1.583504    1.373256
     20          6    10061002        2.503490    0.994532    0.130051
     21          6    10061000        2.606014   -0.319452    0.278575
     22          8    10081002        2.749197   -1.063128   -0.665519
     23          6    10061003        3.394622    0.777196    3.318677
     24          1    10011000        1.102616   -0.962358    1.536880
     25          1    10011000        2.839987   -1.562446    2.078593
     26          1    10011000        1.309120    0.537738    3.178860
     27          1    10011000        2.174784    2.648122    1.552529
     28          1    10011000        2.505406    1.472746   -0.849000
     29          1    10011000        3.337680    1.782473    3.788306
     30          1    10011000        3.376855    0.022580    4.133937
     31          1    10011000        4.322623    0.663492    2.721565
 ---------------------------------------------------------------------
                    Distance matrix (angstroms):
                    1          2          3          4          5
     1  C    0.000000
     2  C    1.396138   0.000000
     3  C    2.497767   1.479439   0.000000
     4  C    2.890281   2.455074   1.339287   0.000000
     5  C    2.567924   2.906091   2.515311   1.545690   0.000000
     6  C    1.468344   2.476122   2.876813   2.544253   1.520086
     7  C    4.300901   3.634027   2.259610   1.509104   2.699864
     8  C    4.671243   3.628025   2.226825   2.302822   3.767571
     9  N    3.831230   2.583243   1.436417   2.290525   3.720764
    10  H    1.081074   2.162498   3.487680   3.967365   3.520125
    11  H    2.136012   1.077759   2.227532   3.405245   3.949676
    12  H    3.443710   3.882132   3.370145   2.206791   1.114715
    13  H    2.219116   3.446187   3.952033   3.523099   2.218064
    14  H    5.165720   4.637443   3.266643   2.294634   3.177768
    15  H    5.727578   4.628938   3.277848   3.353535   4.775892
    16  H    4.303337   2.937069   2.231547   3.275088   4.613147
    17  C    3.799163   4.007201   3.720989   3.003790   2.266143
    18  C    4.929210   4.845246   4.094464   3.165649   2.910986
    19  C    4.855703   4.343616   3.390943   2.812626   3.285189
    20  C    4.265126   3.700264   3.181597   3.108882   3.494412
    21  C    3.564451   3.427994   3.327049   3.153391   2.956208
    22  O    3.170541   3.160089   3.571389   3.739553   3.463230
    23  C    6.286702   6.259503   5.569955   4.680189   4.328058
    24  H    3.030164   3.329552   3.008446   2.151563   1.142974
    25  H    4.338392   4.801848   4.722537   4.012447   2.991930
    26  H    5.122421   5.110836   4.219873   3.045323   2.732652
    27  H    5.874039   5.223669   4.148471   3.650137   4.307384
    28  H    4.501390   3.669116   3.234030   3.564825   4.225395
    29  H    7.079195   6.906803   6.028241   5.115803   5.004980
    30  H    6.574538   6.761029   6.157583   5.145265   4.495831
    31  H    6.462236   6.415735   5.893464   5.202643   4.859302
                    6          7          8          9         10
     6  C    0.000000
     7  C    3.968152   0.000000
     8  C    4.752870   1.404384   0.000000
     9  N    4.292957   2.257655   1.340444   0.000000
    10  H    2.204680   5.356274   5.668115   4.731291   0.000000
    11  H    3.444390   4.385797   4.089427   2.854640   2.475158
    12  H    2.156433   3.109779   4.331614   4.496791   4.338548
    13  H    1.081403   4.871089   5.765387   5.358631   2.536800
    14  H    4.594112   1.100676   2.171321   3.249516   6.234278
    15  H    5.823428   2.196889   1.084124   2.150015   6.702490
    16  H    5.017712   3.208719   2.102967   1.047824   5.052922
    17  C    3.119321   3.326443   4.352008   4.492699   4.493750
    18  C    4.200321   2.784322   3.910600   4.501004   5.773901
    19  C    4.521727   2.000000   2.699379   3.359147   5.756735
    20  C    4.305691   2.842842   3.128460   3.210531   4.997517
    21  C    3.491044   3.428063   3.999801   3.865513   4.166837
    22  O    3.471364   4.313824   4.693410   4.220956   3.492514
    23  C    5.530093   4.146780   5.172270   5.855431   7.038894
    24  H    2.153963   2.871071   3.970000   4.018313   3.855404
    25  H    3.557890   4.409460   5.464625   5.571563   4.844968
    26  H    4.175252   2.655144   3.981156   4.706575   6.039303
    27  H    5.588385   2.474084   2.854632   3.765315   6.785114
    28  H    4.860662   3.275438   3.074960   2.916002   5.163107
    29  H    6.335441   4.278156   5.218101   6.105017   7.904485
    30  H    5.625936   4.805062   5.975533   6.628554   7.277475
    31  H    5.882900   4.741268   5.591171   6.127998   7.105726
                   11         12         13         14         15
    11  H    0.000000
    12  H    4.952206   0.000000
    13  H    4.323102   2.523039   0.000000
    14  H    5.445460   3.220519   5.387323   0.000000
    15  H    4.967374   5.274066   6.822178   2.610541   0.000000
    16  H    2.811349   5.467722   6.069424   4.189054   2.539528
    17  C    4.763926   2.889146   3.418959   3.775446   5.120760
    18  C    5.613941   3.226949   4.625235   2.880971   4.447069
    19  C    4.944026   3.861051   5.221483   2.420800   3.105019
    20  C    4.070186   4.379331   5.007816   3.628070   3.641514
    21  C    3.902168   3.893860   4.003159   4.191682   4.717572
    22  O    3.407345   4.493826   3.903309   5.191697   5.464480
    23  C    6.957824   4.516280   5.785445   4.058287   5.507565
    24  H    4.244079   1.874276   2.606328   3.357595   4.881870
    25  H    5.524704   3.432794   3.521968   4.763533   6.218312
    26  H    6.001553   2.668959   4.573295   2.399245   4.538318
    27  H    5.732774   4.782385   6.310821   2.634525   2.853061
    28  H    3.763225   5.182340   5.652749   4.173718   3.453570
    29  H    7.595218   5.101182   6.675753   3.981271   5.353329
    30  H    7.539908   4.479550   5.689831   4.613129   6.394661
    31  H    6.983415   5.233521   6.115347   4.847317   5.900240
                   16         17         18         19         20
    16  H    0.000000
    17  C    5.159726   0.000000
    18  C    5.232854   1.537228   0.000000
    19  C    3.968113   2.370617   1.525747   0.000000
    20  C    3.534321   2.337726   2.406028   1.488471   0.000000
    21  C    4.271986   1.494993   2.396655   2.295589   1.326320
    22  O    4.445348   2.399569   3.571909   3.438613   2.219745
    23  C    6.493230   2.558782   1.516794   2.562242   3.317934
    24  H    4.810048   1.126558   2.063961   2.683499   2.787657
    25  H    6.203519   1.112919   2.249086   3.348637   3.232365
    26  H    5.577786   2.192622   1.108234   2.178450   3.306118
    27  H    4.256074   3.405041   2.293556   1.105899   2.205867
    28  H    2.915611   3.362306   3.462120   2.296948   1.089603
    29  H    6.736604   3.506263   2.158353   2.799887   3.833999
    30  H    7.340812   2.854070   2.127789   3.483760   4.211717
    31  H    6.621634   2.765409   2.180656   2.892190   3.183517
                   21         22         23         24         25
    21  C    0.000000
    22  O    1.210318   0.000000
    23  C    3.326674   4.435898   0.000000
    24  H    2.063217   2.751717   3.384397   0.000000
    25  H    2.199964   2.790647   2.705431   1.916251   0.000000
    26  H    3.290647   4.406341   2.103856   2.233613   2.822218
    27  H    3.258130   4.361544   2.847393   3.766345   4.295128
    28  H    2.119793   2.554165   4.317874   3.686458   4.230265
    29  H    4.155915   5.317924   1.111024   4.195060   3.789367
    30  H    3.946517   4.960594   1.111040   3.589843   2.650467
    31  H    3.143426   4.114514   1.109350   3.796750   2.750713
                   26         27         28         29         30
    26  H    0.000000
    27  H    2.801436   0.000000
    28  H    4.304532   2.694098   0.000000
    29  H    2.456796   2.664653   4.721570   0.000000
    30  H    2.335185   3.873256   5.262326   1.793940   0.000000
    31  H    3.050596   3.149384   4.087311   1.833077   1.816601
                   31
    31  H    0.000000
 Stoichiometry    C14H15NO
 Framework group  C1[X(C14H15NO)]
 Deg. of freedom    87
 Full point group                 C1      NOp   1
 Largest Abelian subgroup         C1      NOp   1
 Largest concise Abelian subgroup C1      NOp   1
                         Standard orientation:                         
 ---------------------------------------------------------------------
 Center     Atomic      Atomic             Coordinates (Angstroms)
 Number     Number       Type             X           Y           Z
 ---------------------------------------------------------------------
      1          6    10061000        2.485199   -1.623613   -0.089287
      2          6    10061000        2.547396   -0.347280    0.473125
      3          6    10061002        1.790563    0.775381   -0.123178
      4          6    10061002        0.863780    0.560654   -1.065863
      5          6    10061003        0.462701   -0.872867   -1.482167
      6          6    10061002        1.566645   -1.880589   -1.205646
      7          6    10061000       -0.109048    1.704948   -0.918930
      8          6    10061000        0.565406    2.634841   -0.111028
      9          7    10071000        1.618737    2.063212    0.489407
     10          1    10011000        3.016174   -2.454940    0.353073
     11          1    10011000        3.082494   -0.212570    1.398915
     12          1    10011000        0.197187   -0.916297   -2.563928
     13          1    10011000        1.375185   -2.893955   -1.531013
     14          1    10011000       -0.731440    2.059361   -1.754698
     15          1    10011000        0.157591    3.604083    0.152756
     16          1    10011000        1.980564    2.373717    1.422469
     17          6    10061003       -1.299771   -1.297201   -0.122373
     18          6    10061003       -2.184713   -0.111953   -0.540865
     19          6    10061002       -1.568446    1.025580    0.267922
     20          6    10061002       -0.942751    0.387673    1.458353
     21          6    10061000       -0.753774   -0.901792    1.211997
     22          8    10081002       -0.002138   -1.579011    1.876292
     23          6    10061003       -3.664717   -0.335744   -0.295572
     24          1    10011000       -0.419414   -1.147185   -0.809104
     25          1    10011000       -1.801376   -2.290594   -0.134704
     26          1    10011000       -2.091679    0.087092   -1.627101
     27          1    10011000       -2.144755    1.948452    0.465879
     28          1    10011000       -0.406217    0.915730    2.246085
     29          1    10011000       -4.222274    0.599547   -0.516334
     30          1    10011000       -4.002937   -1.108649   -1.018507
     31          1    10011000       -3.853975   -0.682412    0.741087
 ---------------------------------------------------------------------
 Rotational constants (GHZ):      0.8198768      0.5947573      0.4784934
 Leave Link  202 at Sun Mar 21 15:12:35 2021, MaxMem=   33554432 cpu:       0.0
 (Enter C:\G09W\l301.exe)
 Standard basis: Dummy (5D, 7F)
 There are    31 symmetry adapted basis functions of A   symmetry.
 Integral buffers will be    262144 words long.
 Raffenetti 1 integral format.
 Two-electron integral symmetry is turned on.
    31 basis functions,    31 primitive gaussians,    31 cartesian basis functions
    23 alpha electrons       23 beta electrons
       nuclear repulsion energy       178.6702144990 Hartrees.
 IExCor=    0 DFT=F Ex=HF Corr=None ExCW=0 ScaHFX=  1.000000
 ScaDFX=  1.000000  1.000000  1.000000  1.000000 ScalE2=  1.000000  1.000000
 IRadAn=      0 IRanWt=     -1 IRanGd=            0 ICorTp=0
 NAtoms=   31 NActive=   31 NUniq=   31 SFac= 7.50D-01 NAtFMM=   80 NAOKFM=F Big=F
 Leave Link  301 at Sun Mar 21 15:12:35 2021, MaxMem=   33554432 cpu:       0.0
 (Enter C:\G09W\l402.exe)
 UFF calculation of energy and first derivatives.
 Energy per function type:
 Direct non-bonded                                   1450.508560190
 Non-bonded pair                                    -1450.045155418
 Harmonic stretch III                                   0.007892651
 UFF 3-term bend                                        0.016074145
 UFF 2-term bend                                        0.072676367
 UFF torsion fixed V                                    0.003847550
 UFF torsion w/ bond order V                            0.029625590
 UFF torsion w/ sp3 V                                   0.001930240
 Three term Wilson angle                                0.009337963
 Energy per function class:
        Coulomb               0.000000000
    Vanderwaals               0.463404773
     Stretching               0.007892651
        Bending               0.088750513
        Torsion               0.035403379
   Out-of-plane               0.009337963
 Energy=    0.604789278     NIter=   0.
 Dipole moment=       0.000000       0.000000       0.000000
 Leave Link  402 at Sun Mar 21 15:12:35 2021, MaxMem=   33554432 cpu:       0.0
 (Enter C:\G09W\l716.exe)
 Dipole        = 0.00000000D+00 0.00000000D+00 0.00000000D+00
 ***** Axes restored to original set *****
 -------------------------------------------------------------------
 Center     Atomic                   Forces (Hartrees/Bohr)
 Number     Number              X              Y              Z
 -------------------------------------------------------------------
      1        6          -0.000110691    0.000904523    0.000449164
      2        6          -0.003210020   -0.001071867   -0.006495604
      3        6           0.003205879   -0.000020492    0.004048999
      4        6           0.011967409   -0.001435191   -0.000205008
      5        6          -0.008091734   -0.009219428   -0.008613114
      6        6           0.004445644    0.015893739    0.009807722
      7        6          -1.444446021    0.039995079   -0.138139534
      8        6           0.004391629   -0.002661377    0.007028690
      9        7          -0.001354251   -0.006395153   -0.005603056
     10        1          -0.001050424    0.001063823   -0.002758559
     11        1          -0.004001736    0.002274679   -0.003149018
     12        1           0.002174843    0.003718439   -0.000931759
     13        1          -0.003503750   -0.005162419   -0.003979166
     14        1           0.004449403   -0.002175118   -0.003326695
     15        1          -0.002067720   -0.000921717   -0.003147312
     16        1          -0.008485759   -0.003511803    0.000005621
     17        6          -0.004390346   -0.006343637    0.000656414
     18        6           0.001165318    0.003234136   -0.002854820
     19        6           1.448316708   -0.034515255    0.141764893
     20        6          -0.006060405   -0.008361261    0.001763699
     21        6           0.000600857    0.023746265    0.006348112
     22        8           0.010349461   -0.012600670   -0.002264075
     23        6           0.002075098   -0.000963713   -0.001771548
     24        1          -0.011629611    0.004217114    0.005087103
     25        1          -0.001728171   -0.000170336    0.000233703
     26        1          -0.003858209   -0.000143554    0.000204253
     27        1          -0.004757892   -0.006663155    0.002624050
     28        1           0.006224417    0.004463322    0.004599457
     29        1           0.002848484    0.000654714   -0.001340969
     30        1           0.005636216    0.000332922    0.000635678
     31        1           0.000895372    0.001837394   -0.000677320
 -------------------------------------------------------------------
 Cartesian Forces:  Max     1.448316708 RMS     0.213236900
 Leave Link  716 at Sun Mar 21 15:12:35 2021, MaxMem=   33554432 cpu:       0.0
 (Enter C:\G09W\l103.exe)

 GradGradGradGradGradGradGradGradGradGradGradGradGradGradGradGradGradGrad
 Berny optimization.
 Search for a local minimum.
 Step number   1 out of a maximum of    2
 All quantities printed in internal units (Hartrees-Bohrs-Radians)
 Second derivative matrix not updated -- unit matrix used.
 Quadratic step=2.056D+00 exceeds max=1.000D-01 adjusted using Lamda=-1.955D+01.
 Angle between NR and scaled steps=   0.00 degrees.
 Angle between quadratic step and forces=   0.00 degrees.
 Linear search not attempted -- first point.
 TrRot=  0.000000  0.000000  0.000000  0.000000  0.000000  0.000000
 Variable       Old X    -DE/DX   Delta X   Delta X   Delta X     New X
                                 (Linear)    (Quad)   (Total)
    X1       -0.44643  -0.00011   0.00000  -0.00001  -0.00001  -0.44643
    Y1       -3.96160   0.00090   0.00000   0.00004   0.00004  -3.96156
    Z1       -1.76427   0.00045   0.00000   0.00002   0.00002  -1.76425
    X2       -0.55431  -0.00321   0.00000  -0.00016  -0.00016  -0.55446
    Y2       -1.53794  -0.00107   0.00000  -0.00005  -0.00005  -1.53799
    Z2       -2.80107  -0.00650   0.00000  -0.00032  -0.00032  -2.80138
    X3       -0.99032   0.00321   0.00000   0.00016   0.00016  -0.99016
    Y3        0.68898  -0.00002   0.00000   0.00000   0.00000   0.68898
    Z3       -1.16802   0.00405   0.00000   0.00020   0.00020  -1.16782
    X4       -0.87208   0.01197   0.00000   0.00058   0.00058  -0.87150
    Y4        0.50288  -0.00144   0.00000  -0.00007  -0.00007   0.50281
    Z4        1.35324  -0.00021   0.00000  -0.00001  -0.00001   1.35323
    X5       -0.05484  -0.00809   0.00000  -0.00039  -0.00039  -0.05524
    Y5       -1.98372  -0.00922   0.00000  -0.00045  -0.00045  -1.98417
    Z5        2.64969  -0.00861   0.00000  -0.00042  -0.00042   2.64927
    X6       -0.53383   0.00445   0.00000   0.00022   0.00022  -0.53361
    Y6       -4.27944   0.01589   0.00000   0.00077   0.00077  -4.27867
    Z6        0.99085   0.00981   0.00000   0.00048   0.00048   0.99132
    X7       -0.10457  -1.44445   0.00000  -0.07030  -0.07030  -0.17487
    Y7        3.10172   0.04000   0.00000   0.00195   0.00195   3.10366
    Z7        2.24188  -0.13814   0.00000  -0.00672  -0.00672   2.23516
    X8       -0.48469   0.00439   0.00000   0.00021   0.00021  -0.48448
    Y8        4.66050  -0.00266   0.00000  -0.00013  -0.00013   4.66037
    Z8        0.12791   0.00703   0.00000   0.00034   0.00034   0.12825
    X9       -0.74201  -0.00135   0.00000  -0.00007  -0.00007  -0.74208
    Y9        3.26932  -0.00640   0.00000  -0.00031  -0.00031   3.26900
    Z9       -1.97325  -0.00560   0.00000  -0.00027  -0.00027  -1.97352
   X10       -0.08486  -0.00105   0.00000  -0.00005  -0.00005  -0.08491
   Y10       -5.59515   0.00106   0.00000   0.00005   0.00005  -5.59510
   Z10       -2.93661  -0.00276   0.00000  -0.00013  -0.00013  -2.93674
   X11       -0.14643  -0.00400   0.00000  -0.00019  -0.00019  -0.14662
   Y11       -1.29763   0.00227   0.00000   0.00011   0.00011  -1.29752
   Z11       -4.78195  -0.00315   0.00000  -0.00015  -0.00015  -4.78210
   X12       -1.05771   0.00217   0.00000   0.00011   0.00011  -1.05761
   Y12       -2.24634   0.00372   0.00000   0.00018   0.00018  -2.24616
   Z12        4.48344  -0.00093   0.00000  -0.00005  -0.00005   4.48340
   X13       -0.11320  -0.00350   0.00000  -0.00017  -0.00017  -0.11337
   Y13       -6.09414  -0.00516   0.00000  -0.00025  -0.00025  -6.09439
   Z13        1.83113  -0.00398   0.00000  -0.00019  -0.00019   1.83093
   X14       -0.57030   0.00445   0.00000   0.00022   0.00022  -0.57008
   Y14        3.81034  -0.00218   0.00000  -0.00011  -0.00011   3.81024
   Z14        4.14116  -0.00333   0.00000  -0.00016  -0.00016   4.14100
   X15       -0.19091  -0.00207   0.00000  -0.00010  -0.00010  -0.19101
   Y15        6.68788  -0.00092   0.00000  -0.00004  -0.00004   6.68783
   Z15        0.15213  -0.00315   0.00000  -0.00015  -0.00015   0.15197
   X16       -0.20509  -0.00849   0.00000  -0.00041  -0.00041  -0.20551
   Y16        3.91665  -0.00351   0.00000  -0.00017  -0.00017   3.91648
   Z16       -3.76586   0.00001   0.00000   0.00000   0.00000  -3.76586
   X17        4.16515  -0.00439   0.00000  -0.00021  -0.00021   4.16494
   Y17       -1.42744  -0.00634   0.00000  -0.00031  -0.00031  -1.42775
   Z17        3.11987   0.00066   0.00000   0.00003   0.00003   3.11990
   X18        4.08160   0.00117   0.00000   0.00006   0.00006   4.08166
   Y18        1.03095   0.00323   0.00000   0.00016   0.00016   1.03111
   Z18        4.66519  -0.00285   0.00000  -0.00014  -0.00014   4.66505
   X19        3.65676   1.44832   0.00000   0.07049   0.07049   3.72724
   Y19        2.99239  -0.03452   0.00000  -0.00168  -0.00168   2.99071
   Z19        2.59508   0.14176   0.00000   0.00690   0.00690   2.60198
   X20        4.73091  -0.00606   0.00000  -0.00029  -0.00029   4.73062
   Y20        1.87939  -0.00836   0.00000  -0.00041  -0.00041   1.87899
   Z20        0.24576   0.00176   0.00000   0.00009   0.00009   0.24585
   X21        4.92465   0.00060   0.00000   0.00003   0.00003   4.92468
   Y21       -0.60368   0.02375   0.00000   0.00116   0.00116  -0.60252
   Z21        0.52643   0.00635   0.00000   0.00031   0.00031   0.52674
   X22        5.19523   0.01035   0.00000   0.00050   0.00050   5.19573
   Y22       -2.00902  -0.01260   0.00000  -0.00061  -0.00061  -2.00963
   Z22       -1.25765  -0.00226   0.00000  -0.00011  -0.00011  -1.25776
   X23        6.41491   0.00208   0.00000   0.00010   0.00010   6.41501
   Y23        1.46869  -0.00096   0.00000  -0.00005  -0.00005   1.46864
   Z23        6.27139  -0.00177   0.00000  -0.00009  -0.00009   6.27130
   X24        2.08364  -0.01163   0.00000  -0.00057  -0.00057   2.08308
   Y24       -1.81859   0.00422   0.00000   0.00021   0.00021  -1.81839
   Z24        2.90428   0.00509   0.00000   0.00025   0.00025   2.90453
   X25        5.36680  -0.00173   0.00000  -0.00008  -0.00008   5.36671
   Y25       -2.95260  -0.00017   0.00000  -0.00001  -0.00001  -2.95260
   Z25        3.92797   0.00023   0.00000   0.00001   0.00001   3.92798
   X26        2.47388  -0.00386   0.00000  -0.00019  -0.00019   2.47369
   Y26        1.01618  -0.00014   0.00000  -0.00001  -0.00001   1.01617
   Z26        6.00717   0.00020   0.00000   0.00001   0.00001   6.00718
   X27        4.10975  -0.00476   0.00000  -0.00023  -0.00023   4.10951
   Y27        5.00423  -0.00666   0.00000  -0.00032  -0.00032   5.00390
   Z27        2.93385   0.00262   0.00000   0.00013   0.00013   2.93398
   X28        4.73453   0.00622   0.00000   0.00030   0.00030   4.73483
   Y28        2.78309   0.00446   0.00000   0.00022   0.00022   2.78330
   Z28       -1.60438   0.00460   0.00000   0.00022   0.00022  -1.60415
   X29        6.30730   0.00285   0.00000   0.00014   0.00014   6.30744
   Y29        3.36839   0.00065   0.00000   0.00003   0.00003   3.36842
   Z29        7.15886  -0.00134   0.00000  -0.00007  -0.00007   7.15880
   X30        6.38133   0.00564   0.00000   0.00027   0.00027   6.38161
   Y30        0.04267   0.00033   0.00000   0.00002   0.00002   0.04269
   Z30        7.81201   0.00064   0.00000   0.00003   0.00003   7.81204
   X31        8.16857   0.00090   0.00000   0.00004   0.00004   8.16862
   Y31        1.25382   0.00184   0.00000   0.00009   0.00009   1.25391
   Z31        5.14301  -0.00068   0.00000  -0.00003  -0.00003   5.14298
         Item               Value     Threshold  Converged?
 Maximum Force            1.448317     0.000450     NO 
 RMS     Force            0.213237     0.000300     NO 
 Maximum Displacement     0.070489     0.001800     NO 
 RMS     Displacement     0.010378     0.001200     NO 
 Predicted change in Energy=-5.008313D-03
 GradGradGradGradGradGradGradGradGradGradGradGradGradGradGradGradGradGrad

 Leave Link  103 at Sun Mar 21 15:12:35 2021, MaxMem=   33554432 cpu:       0.0
 (Enter C:\G09W\l9999.exe)
 1|1|UNPC-NICOLò-ASUS|Force|RUFF|ZDO|C14H15N1O1|NIK|21-Mar-2021|0||#P U
 FF force||Gaussian input prepared by ASE||0,1|C,-0.2362388132,-2.09639
 06586,-0.9336128057|C,-0.2933270079,-0.8138426582,-1.4822602363|C,-0.5
 240544101,0.364594663,-0.6180893758|C,-0.4614871569,0.2661115233,0.716
 1050811|C,-0.0290218772,-1.0497397707,1.4021561054|C,-0.2824906473,-2.
 2645819287,0.5243333366|C,-0.0553355881,1.6413572029,1.1863541908|C,-0
 .2564878618,2.4662292977,0.0676864011|N,-0.3926566744,1.7300471924,-1.
 0441963858|H,-0.0449079323,-2.9608266184,-1.5539861586|H,-0.0774855641
 ,-0.6866743019,-2.5304988987|H,-0.5597181231,-1.1887123666,2.372536477
 4|H,-0.0599031661,-3.2248773656,0.9689900519|H,-0.3017896784,2.0163470
 637,2.1914071483|H,-0.1010230527,3.5390718891,0.0805012396|H,-0.108531
 2917,2.0726025771,-1.9928083998|C,2.2041031024,-0.7553697426,1.6509627
 856|C,2.159890351,0.5455544653,2.4687105164|C,1.9350715866,1.583503525
 1,1.373255852|C,2.5034902197,0.9945320954,0.1300510082|C,2.6060135425,
 -0.3194515418,0.2785753037|O,2.7491970041,-1.0631282829,-0.6655188782|
 C,3.3946224258,0.7771963893,3.3186771472|H,1.1026156596,-0.962357589,1
 .5368798868|H,2.8399869065,-1.5624462669,2.0785930785|H,1.3091198438,0
 .5377383334,3.1788595732|H,2.1747838447,2.6481219503,1.5525290532|H,2.
 5054055907,1.4727462978,-0.8490004889|H,3.3376800701,1.7824730832,3.78
 8305797|H,3.3768552382,0.022580043,4.133936795|H,4.322623463,0.6634915
 003,2.7215647928||Version=IA32W-G09RevA.02|HF=0.6047893|RMSD=0.000e+00
 0|RMSF=2.132e-001|Dipole=0.,0.,0.|PG=C01 [X(C14H15N1O1)]||@


 I take a simple view of life: keep your eyes open and get on with it.
 -- Laurence Olivier
 Job cpu time:  0 days  0 hours  0 minutes  1.0 seconds.
 File lengths (MBytes):  RWF=      5 Int=      0 D2E=      0 Chk=      1 Scr=      1
 Normal termination of Gaussian 09 at Sun Mar 21 15:12:35 2021.
