 Entering Gaussian System, Link 0=g09
 Input=TEST_TS.com
 Output=C:\Users\Nik\Desktop\Coding\TSCoDe\mopac_tests\TEST_TS.out
 Initial command:
 C:\G09W\l1.exe .\gxx.inp C:\Users\Nik\Desktop\Coding\TSCoDe\mopac_tests\TEST_TS.out /scrdir=.\
 Entering Link 1 = C:\G09W\l1.exe PID=     13936.
  
 Copyright (c) 1988,1990,1992,1993,1995,1998,2003,2009, Gaussian, Inc.
                  All Rights Reserved.
  
 This is part of the Gaussian(R) 09 program.  It is based on
 the Gaussian(R) 03 system (copyright 2003, Gaussian, Inc.),
 the Gaussian(R) 98 system (copyright 1998, Gaussian, Inc.),
 the Gaussian(R) 94 system (copyright 1995, Gaussian, Inc.),
 the Gaussian 92(TM) system (copyright 1992, Gaussian, Inc.),
 the Gaussian 90(TM) system (copyright 1990, Gaussian, Inc.),
 the Gaussian 88(TM) system (copyright 1988, Gaussian, Inc.),
 the Gaussian 86(TM) system (copyright 1986, Carnegie Mellon
 University), and the Gaussian 82(TM) system (copyright 1983,
 Carnegie Mellon University). Gaussian is a federally registered
 trademark of Gaussian, Inc.
  
 This software contains proprietary and confidential information,
 including trade secrets, belonging to Gaussian, Inc.
  
 This software is provided under written license and may be
 used, copied, transmitted, or stored only in accord with that
 written license.
  
 The following legend is applicable only to US Government
 contracts under FAR:
  
                    RESTRICTED RIGHTS LEGEND
  
 Use, reproduction and disclosure by the US Government is
 subject to restrictions as set forth in subparagraphs (a)
 and (c) of the Commercial Computer Software - Restricted
 Rights clause in FAR 52.227-19.
  
 Gaussian, Inc.
 340 Quinnipiac St., Bldg. 40, Wallingford CT 06492
  
  
 ---------------------------------------------------------------
 Warning -- This program may not be used in any manner that
 competes with the business of Gaussian, Inc. or will provide
 assistance to any competitor of Gaussian, Inc.  The licensee
 of this program is prohibited from giving any competitor of
 Gaussian, Inc. access to this program.  By using this program,
 the user acknowledges that Gaussian, Inc. is engaged in the
 business of creating and licensing software in the field of
 computational chemistry and represents and warrants to the
 licensee that it is not a competitor of Gaussian, Inc. and that
 it will not use this program in any manner prohibited above.
 ---------------------------------------------------------------
  

 Cite this work as:
 Gaussian 09, Revision A.02,
 M. J. Frisch, G. W. Trucks, H. B. Schlegel, G. E. Scuseria, 
 M. A. Robb, J. R. Cheeseman, G. Scalmani, V. Barone, B. Mennucci, 
 G. A. Petersson, H. Nakatsuji, M. Caricato, X. Li, H. P. Hratchian, 
 A. F. Izmaylov, J. Bloino, G. Zheng, J. L. Sonnenberg, M. Hada, 
 M. Ehara, K. Toyota, R. Fukuda, J. Hasegawa, M. Ishida, T. Nakajima, 
 Y. Honda, O. Kitao, H. Nakai, T. Vreven, J. A. Montgomery, Jr., 
 J. E. Peralta, F. Ogliaro, M. Bearpark, J. J. Heyd, E. Brothers, 
 K. N. Kudin, V. N. Staroverov, R. Kobayashi, J. Normand, 
 K. Raghavachari, A. Rendell, J. C. Burant, S. S. Iyengar, J. Tomasi, 
 M. Cossi, N. Rega, J. M. Millam, M. Klene, J. E. Knox, J. B. Cross, 
 V. Bakken, C. Adamo, J. Jaramillo, R. Gomperts, R. E. Stratmann, 
 O. Yazyev, A. J. Austin, R. Cammi, C. Pomelli, J. W. Ochterski, 
 R. L. Martin, K. Morokuma, V. G. Zakrzewski, G. A. Voth, 
 P. Salvador, J. J. Dannenberg, S. Dapprich, A. D. Daniels, 
 O. Farkas, J. B. Foresman, J. V. Ortiz, J. Cioslowski, 
 and D. J. Fox, Gaussian, Inc., Wallingford CT, 2009.
 
 ******************************************
 Gaussian 09:  IA32W-G09RevA.02 11-Jun-2009
                21-Mar-2021 
 ******************************************
 ------------
 #P UFF force
 ------------
 1/10=10,18=10,30=1,38=1,56=1,64=2/1,3;
 2/12=2,17=6,18=5,29=2,40=1/2;
 3/5=30,11=9,16=1,25=1,30=1,41=10200000,43=2,71=1/1;
 4/20=10,22=1,24=3/2;
 7/7=1,44=-1/16;
 1/10=10,18=10,30=1,64=2/3;
 99/12=1/99;
 Leave Link    1 at Sun Mar 21 14:35:22 2021, MaxMem=          0 cpu:       0.0
 (Enter C:\G09W\l101.exe)
 ------------------------------
 Gaussian input prepared by ASE
 ------------------------------
 Symbolic Z-matrix:
 Charge =  0 Multiplicity = 1
 C                     0.       -2.0259   -0.8689 
 C                     0.0001   -0.7673   -1.4785 
 C                     0.        0.3562   -0.6434 
 C                     0.        0.2598    0.7485 
 C                    -0.0001   -1.0183    1.3393 
 C                     0.       -2.1524    0.5188 
 C                     0.        1.5869    1.2602 
 C                     0.        2.4504    0.1885 
 N                     0.        1.6971   -0.9557 
 H                     0.0001   -2.9196   -1.4887 
 H                     0.       -0.6727   -2.5592 
 H                    -0.0001   -1.1249    2.4198 
 H                     0.       -3.1409    0.9712 
 H                     0.        1.8754    2.3031 
 H                    -0.0001    3.5309    0.1416 
 H                     0.        2.0653   -1.8966 
 C                     1.9545   -0.7727    1.6898 
 C                     1.9993    0.5922    2.3861 
 C                     2.        1.5869    1.2602 
 C                     1.9994    1.0496    0.0382 
 C                     1.9889   -0.4048    0.2347 
 O                     1.997    -1.1974   -0.6944 
 C                     3.2307    0.7477    3.2713 
 H                     1.0194   -1.2973    1.9088 
 H                     2.8101   -1.408     1.9358 
 H                     1.0998    0.7285    2.9981 
 H                     1.9995    2.656     1.4357 
 H                     2.0013    1.5312   -0.9231 
 H                     3.2505    1.7369    3.7418 
 H                     3.2284   -0.0032    4.0684 
 H                     4.1583    0.6303    2.6996 
 
 NAtoms=     31 NQM=     31 NQMF=      0 NMic=      0 NMicF=      0 NTot=     31.
                    Isotopes and Nuclear Properties:
 (Nuclear quadrupole moments (NQMom) in fm**2, nuclear magnetic moments (NMagM)
  in nuclear magnetons)

  Atom         1           2           3           4           5           6           7           8           9          10
 IAtWgt=          12          12          12          12          12          12          12          12          14           1
 AtmWgt=  12.0000000  12.0000000  12.0000000  12.0000000  12.0000000  12.0000000  12.0000000  12.0000000  14.0030740   1.0078250
 NucSpn=           0           0           0           0           0           0           0           0           2           1
 AtZEff=   0.0000000   0.0000000   0.0000000   0.0000000   0.0000000   0.0000000   0.0000000   0.0000000   0.0000000   0.0000000
 NQMom=    0.0000000   0.0000000   0.0000000   0.0000000   0.0000000   0.0000000   0.0000000   0.0000000   2.0440000   0.0000000
 NMagM=    0.0000000   0.0000000   0.0000000   0.0000000   0.0000000   0.0000000   0.0000000   0.0000000   0.4037610   2.7928460

  Atom        11          12          13          14          15          16          17          18          19          20
 IAtWgt=           1           1           1           1           1           1          12          12          12          12
 AtmWgt=   1.0078250   1.0078250   1.0078250   1.0078250   1.0078250   1.0078250  12.0000000  12.0000000  12.0000000  12.0000000
 NucSpn=           1           1           1           1           1           1           0           0           0           0
 AtZEff=   0.0000000   0.0000000   0.0000000   0.0000000   0.0000000   0.0000000   0.0000000   0.0000000   0.0000000   0.0000000
 NQMom=    0.0000000   0.0000000   0.0000000   0.0000000   0.0000000   0.0000000   0.0000000   0.0000000   0.0000000   0.0000000
 NMagM=    2.7928460   2.7928460   2.7928460   2.7928460   2.7928460   2.7928460   0.0000000   0.0000000   0.0000000   0.0000000

  Atom        21          22          23          24          25          26          27          28          29          30
 IAtWgt=          12          16          12           1           1           1           1           1           1           1
 AtmWgt=  12.0000000  15.9949146  12.0000000   1.0078250   1.0078250   1.0078250   1.0078250   1.0078250   1.0078250   1.0078250
 NucSpn=           0           0           0           1           1           1           1           1           1           1
 AtZEff=   0.0000000   0.0000000   0.0000000   0.0000000   0.0000000   0.0000000   0.0000000   0.0000000   0.0000000   0.0000000
 NQMom=    0.0000000   0.0000000   0.0000000   0.0000000   0.0000000   0.0000000   0.0000000   0.0000000   0.0000000   0.0000000
 NMagM=    0.0000000   0.0000000   0.0000000   2.7928460   2.7928460   2.7928460   2.7928460   2.7928460   2.7928460   2.7928460

  Atom        31
 IAtWgt=           1
 AtmWgt=   1.0078250
 NucSpn=           1
 AtZEff=   0.0000000
 NQMom=    0.0000000
 NMagM=    2.7928460
 Generating MM parameters.
 I=    4 IAn=  6 Valence= 5.
          JB=  1 J=    3 IAn=  6 IBT=12 Dist= 1.40D+00
          JB=  2 J=    5 IAn=  6 IBT=12 Dist= 1.41D+00
          JB=  3 J=    7 IAn=  6 IBT=12 Dist= 1.42D+00
 I=    5 IAn=  6 Valence= 5.
          JB=  1 J=    4 IAn=  6 IBT=12 Dist= 1.41D+00
          JB=  2 J=    6 IAn=  6 IBT=12 Dist= 1.40D+00
          JB=  3 J=   12 IAn=  1 IBT= 1 Dist= 1.09D+00
          JB=  4 J=   24 IAn=  1 IBT= 1 Dist= 1.20D+00
 I=    9 IAn=  7 Valence= 4.
          JB=  1 J=    3 IAn=  6 IBT= 1 Dist= 1.38D+00
          JB=  2 J=    8 IAn=  6 IBT=12 Dist= 1.37D+00
          JB=  3 J=   16 IAn=  1 IBT= 1 Dist= 1.01D+00
 I=   24 IAn=  1 Valence= 2.
          JB=  1 J=    5 IAn=  6 IBT= 1 Dist= 1.20D+00
          JB=  2 J=   17 IAn=  6 IBT= 1 Dist= 1.09D+00
 Include all MM classes

 MM sanity checks:
 All charges sum to:                0.00000000
 Charges of atoms sum to:           0.00000000
 MMInit generated parameter data with length LenPar=        3710.
 Leave Link  101 at Sun Mar 21 14:35:22 2021, MaxMem=   33554432 cpu:       0.0
 (Enter C:\G09W\l103.exe)

 GradGradGradGradGradGradGradGradGradGradGradGradGradGradGradGradGradGrad
 Berny optimization.
 Initialization pass.
 Trust Radius=1.00D-01 FncErr=1.00D-07 GrdErr=1.00D-07
 Number of steps in this run=   2 maximum allowed number of steps=   2.
 GradGradGradGradGradGradGradGradGradGradGradGradGradGradGradGradGradGrad

 Leave Link  103 at Sun Mar 21 14:35:23 2021, MaxMem=   33554432 cpu:       0.0
 (Enter C:\G09W\l202.exe)
 ---------------------------------------------------------------------------------------------------
                            Z-MATRIX (ANGSTROMS AND DEGREES)
   CD    Cent   Atom    N1       Length/X        N2       Alpha/Y        N3        Beta/Z          J
 ---------------------------------------------------------------------------------------------------
      1      1  C        0   0.000000         -2.025900         -0.868900
      2      2  C        0   0.000100         -0.767300         -1.478500
      3      3  C        0   0.000000          0.356200         -0.643400
      4      4  C        0   0.000000          0.259800          0.748500
      5      5  C        0  -0.000100         -1.018300          1.339300
      6      6  C        0   0.000000         -2.152400          0.518800
      7      7  C        0   0.000000          1.586900          1.260200
      8      8  C        0   0.000000          2.450400          0.188500
      9      9  N        0   0.000000          1.697100         -0.955700
     10     10  H        0   0.000100         -2.919600         -1.488700
     11     11  H        0   0.000000         -0.672700         -2.559200
     12     12  H        0  -0.000100         -1.124900          2.419800
     13     13  H        0   0.000000         -3.140900          0.971200
     14     14  H        0   0.000000          1.875400          2.303100
     15     15  H        0  -0.000100          3.530900          0.141600
     16     16  H        0   0.000000          2.065300         -1.896600
     17     17  C        0   1.954500         -0.772700          1.689800
     18     18  C        0   1.999300          0.592200          2.386100
     19     19  C        0   2.000000          1.586900          1.260200
     20     20  C        0   1.999400          1.049600          0.038200
     21     21  C        0   1.988900         -0.404800          0.234700
     22     22  O        0   1.997000         -1.197400         -0.694400
     23     23  C        0   3.230700          0.747700          3.271300
     24     24  H        0   1.019400         -1.297300          1.908800
     25     25  H        0   2.810100         -1.408000          1.935800
     26     26  H        0   1.099800          0.728500          2.998100
     27     27  H        0   1.999500          2.656000          1.435700
     28     28  H        0   2.001300          1.531200         -0.923100
     29     29  H        0   3.250500          1.736900          3.741800
     30     30  H        0   3.228400         -0.003200          4.068400
     31     31  H        0   4.158300          0.630300          2.699600
 ---------------------------------------------------------------------------------------------------
                         Z-Matrix orientation:                         
 ---------------------------------------------------------------------
 Center     Atomic      Atomic             Coordinates (Angstroms)
 Number     Number       Type             X           Y           Z
 ---------------------------------------------------------------------
      1          6    10061000        0.000000   -2.025900   -0.868900
      2          6    10061000        0.000100   -0.767300   -1.478500
      3          6    10061000        0.000000    0.356200   -0.643400
      4          6    10061000        0.000000    0.259800    0.748500
      5          6    10061000       -0.000100   -1.018300    1.339300
      6          6    10061000        0.000000   -2.152400    0.518800
      7          6    10061000        0.000000    1.586900    1.260200
      8          6    10061000        0.000000    2.450400    0.188500
      9          7    10071000        0.000000    1.697100   -0.955700
     10          1    10011000        0.000100   -2.919600   -1.488700
     11          1    10011000        0.000000   -0.672700   -2.559200
     12          1    10011000       -0.000100   -1.124900    2.419800
     13          1    10011000        0.000000   -3.140900    0.971200
     14          1    10011000        0.000000    1.875400    2.303100
     15          1    10011000       -0.000100    3.530900    0.141600
     16          1    10011000        0.000000    2.065300   -1.896600
     17          6    10061003        1.954500   -0.772700    1.689800
     18          6    10061003        1.999300    0.592200    2.386100
     19          6    10061002        2.000000    1.586900    1.260200
     20          6    10061002        1.999400    1.049600    0.038200
     21          6    10061002        1.988900   -0.404800    0.234700
     22          8    10081002        1.997000   -1.197400   -0.694400
     23          6    10061003        3.230700    0.747700    3.271300
     24          1    10011000        1.019400   -1.297300    1.908800
     25          1    10011000        2.810100   -1.408000    1.935800
     26          1    10011000        1.099800    0.728500    2.998100
     27          1    10011000        1.999500    2.656000    1.435700
     28          1    10011000        2.001300    1.531200   -0.923100
     29          1    10011000        3.250500    1.736900    3.741800
     30          1    10011000        3.228400   -0.003200    4.068400
     31          1    10011000        4.158300    0.630300    2.699600
 ---------------------------------------------------------------------
                    Distance matrix (angstroms):
                    1          2          3          4          5
     1  C    0.000000
     2  C    1.398458   0.000000
     3  C    2.392750   1.399873   0.000000
     4  C    2.800073   2.452440   1.395234   0.000000
     5  C    2.427222   2.828957   2.412540   1.408043   0.000000
     6  C    1.393454   2.430578   2.764739   2.423112   1.399787
     7  C    4.193494   3.611473   2.266785   1.422333   2.606401
     8  C    4.599495   3.623877   2.253382   2.261046   3.654616
     9  N    3.724012   2.519243   1.376788   2.229379   3.555337
    10  H    1.087590   2.152324   3.383105   3.887628   3.407716
    11  H    2.165240   1.084833   2.174609   3.436631   3.913789
    12  H    3.409890   3.914667   3.402477   2.170400   1.085746
    13  H    2.151556   3.411013   3.851836   3.407984   2.154281
    14  H    5.028094   4.613498   3.315091   2.242085   3.049985
    15  H    5.647932   4.593392   3.270313   3.326924   4.704222
    16  H    4.218304   2.863290   2.119324   3.202559   4.469859
    17  C    3.455073   3.722611   3.246276   2.402535   2.000907
    18  C    4.631055   4.558528   3.637412   2.605652   2.772562
    19  C    4.646008   4.128236   3.022965   2.454186   3.285380
    20  C    3.778774   3.098178   2.223282   2.264047   3.157067
    21  C    2.793138   2.649865   2.303455   2.159029   2.356405
    22  O    2.169072   2.188015   2.530668   2.862412   2.855945
    23  C    5.938984   5.940758   5.090734   4.127952   4.158058
    24  H    3.047237   3.576825   3.207330   2.193179   1.200646
    25  H    4.018060   4.468114   4.202539   3.476766   2.899121
    26  H    4.873394   4.846308   3.822132   2.547536   2.648152
    27  H    5.588324   4.920279   3.689138   3.195625   4.184277
    28  H    4.081801   3.097801   2.337533   2.901018   3.952721
    29  H    6.781074   6.639853   5.630458   4.659122   4.891782
    30  H    6.236250   6.463271   5.723006   4.638262   4.347600
    31  H    6.089421   6.058088   5.342494   4.608201   4.675531
                    6          7          8          9         10
     6  C    0.000000
     7  C    3.812091   0.000000
     8  C    4.614636   1.376290   0.000000
     9  N    4.122232   2.218639   1.369910   0.000000
    10  H    2.149105   5.278730   5.625824   4.647366   0.000000
    11  H    3.415201   4.437748   4.159761   2.861322   2.488881
    12  H    2.160916   2.949327   4.214436   4.399737   4.300851
    13  H    1.087105   4.736625   5.645817   5.207609   2.469834
    14  H    4.405326   1.082069   2.191383   3.263674   6.113082
    15  H    5.695804   2.242856   1.081517   2.137028   6.653332
    16  H    4.860365   3.192844   2.120364   1.010378   5.001561
    17  C    2.663622   3.093920   4.057382   4.113229   4.304849
    18  C    3.875157   2.500856   3.504219   4.047917   5.598537
    19  C    4.304885   2.000000   2.427792   2.987031   5.644873
    20  C    3.805441   2.404075   2.445901   2.324800   4.699274
    21  C    2.662807   2.995704   3.479946   3.129019   3.640007
    22  O    2.524260   3.944718   4.251349   3.526247   2.753996
    23  C    5.140453   3.896948   4.779149   5.404286   6.822277
    24  H    1.924181   3.127054   4.247807   4.267431   3.900492
    25  H    3.233989   4.162034   5.083008   5.089114   4.680623
    26  H    3.956776   2.228611   3.473953   4.216667   5.886370
    27  H    5.287666   2.274154   2.365540   3.261332   6.605833
    28  H    4.433191   2.962280   2.466938   2.008429   4.912670
    29  H    6.006674   4.092260   4.868344   5.712604   7.720507
    30  H    5.257498   4.564753   5.612160   6.209281   7.057526
    31  H    5.458092   4.503156   5.187470   5.638328   6.887254
                   11         12         13         14         15
    11  H    0.000000
    12  H    4.999493   0.000000
    13  H    4.307637   2.482478   0.000000
    14  H    5.489515   3.002569   5.190108   0.000000
    15  H    4.996456   5.183307   6.723180   2.722639   0.000000
    16  H    2.817034   5.367372   5.943803   4.203991   2.510427
    17  C    4.678041   2.115988   3.153542   3.347931   4.973767
    18  C    5.482077   2.635748   4.464883   2.377118   4.203729
    19  C    4.867608   3.563556   5.141558   2.273955   3.005129
    20  C    3.702756   3.794531   4.735861   3.131983   3.188345
    21  C    3.439967   3.041271   3.461849   3.665149   4.410728
    22  O    2.782229   3.700258   3.246448   4.734460   5.200397
    23  C    6.815401   3.830111   5.554196   3.556198   5.289546
    24  H    4.625184   1.153353   2.305891   3.355693   5.241554
    25  H    5.351855   2.865593   3.439485   4.337313   5.958952
    26  H    5.835795   2.231435   4.504458   1.734348   4.150038
    27  H    5.571128   4.388856   6.149619   2.315107   2.537429
    28  H    3.396940   4.715448   5.424214   3.812092   3.022911
    29  H    7.488292   4.528132   6.483433   3.557357   5.171680
    30  H    7.402424   3.794642   5.464465   4.131342   6.191351
    31  H    6.829659   4.522312   5.873736   4.358778   5.678832
                   16         17         18         19         20
    16  H    0.000000
    17  C    4.973588   0.000000
    18  C    4.950631   1.532903   0.000000
    19  C    3.767526   2.398820   1.502358   0.000000
    20  C    2.961874   2.459792   2.392039   1.334907   0.000000
    21  C    3.820937   1.501283   2.371210   2.240233   1.467652
    22  O    4.009801   2.422104   3.562605   3.401881   2.363412
    23  C    6.235438   2.538000   1.524502   2.502679   3.472777
    24  H    5.179510   1.094339   2.181337   3.114622   3.157132
    25  H    5.886235   1.093697   2.204760   3.175236   3.209037
    26  H    5.191790   2.166971   1.096459   2.137173   3.110208
    27  H    3.930795   3.438397   2.272120   1.083409   2.129208
    28  H    2.288704   3.483876   3.439844   2.184011   1.075193
    29  H    6.516529   3.491191   2.171120   2.782910   3.969167
    30  H    7.091014   2.805831   2.166869   3.453024   4.342965
    31  H    6.362055   2.800864   2.181975   2.764998   3.452494
                   21         22         23         24         25
    21  C    0.000000
    22  O    1.221273   0.000000
    23  C    3.477249   4.586088   0.000000
    24  H    2.130516   2.782505   3.305795   0.000000
    25  H    2.138813   2.761057   2.570507   1.794322   0.000000
    26  H    3.116287   4.260119   2.148428   2.301500   2.935684
    27  H    3.288010   4.402956   2.920084   4.100366   4.174119
    28  H    2.255826   2.738171   4.440528   4.121189   4.179278
    29  H    4.298635   5.464545   1.095572   4.188564   3.653216
    30  H    4.049061   5.062284   1.095091   3.349365   2.587744
    31  H    3.442885   4.419382   1.095931   3.767453   2.560410
                   26         27         28         29         30
    26  H    0.000000
    27  H    2.639282   0.000000
    28  H    4.102784   2.613258   0.000000
    29  H    2.489070   2.779900   4.833643   0.000000
    30  H    2.492361   3.938610   5.364255   1.770622   0.000000
    31  H    3.074600   3.218901   4.311406   1.770549   1.771906
                   31
    31  H    0.000000
 Stoichiometry    C14H15NO
 Framework group  C1[X(C14H15NO)]
 Deg. of freedom    87
 Full point group                 C1      NOp   1
 Largest Abelian subgroup         C1      NOp   1
 Largest concise Abelian subgroup C1      NOp   1
                         Standard orientation:                         
 ---------------------------------------------------------------------
 Center     Atomic      Atomic             Coordinates (Angstroms)
 Number     Number       Type             X           Y           Z
 ---------------------------------------------------------------------
      1          6    10061000        2.529973   -1.159992   -0.099511
      2          6    10061000        2.426367    0.164413    0.337415
      3          6    10061000        1.311529    0.899226   -0.083099
      4          6    10061000        0.322258    0.361346   -0.906936
      5          6    10061000        0.448406   -0.974415   -1.334034
      6          6    10061000        1.557099   -1.723453   -0.922761
      7          6    10061000       -0.642747    1.383308   -1.124629
      8          6    10061000       -0.229381    2.503985   -0.440975
      9          7    10071000        0.951264    2.200878    0.184211
     10          1    10011000        3.383792   -1.758947    0.208869
     11          1    10011000        3.185790    0.599747    0.978213
     12          1    10011000       -0.305523   -1.420396   -1.975545
     13          1    10011000        1.657985   -2.755102   -1.250359
     14          1    10011000       -1.543171    1.303207   -1.719350
     15          1    10011000       -0.671415    3.486461   -0.345958
     16          1    10011000        1.486257    2.835743    0.760053
     17          6    10061003       -0.908201   -1.465679    0.052295
     18          6    10061003       -2.049387   -0.483464   -0.235354
     19          6    10061002       -1.654097    0.772030    0.488911
     20          6    10061002       -0.510802    0.687704    1.172827
     21          6    10061002       -0.009295   -0.674771    0.957988
     22          8    10081002        1.025145   -1.085320    1.460871
     23          6    10061003       -3.396899   -1.007821    0.247724
     24          1    10011000       -0.366170   -1.720533   -0.863582
     25          1    10011000       -1.242842   -2.375695    0.558317
     26          1    10011000       -2.108360   -0.285087   -1.312104
     27          1    10011000       -2.255763    1.672268    0.452222
     28          1    10011000       -0.011694    1.430118    1.769276
     29          1    10011000       -4.192252   -0.281022    0.049090
     30          1    10011000       -3.655235   -1.937910   -0.269406
     31          1    10011000       -3.390351   -1.210943    1.324647
 ---------------------------------------------------------------------
 Rotational constants (GHZ):      0.9758404      0.7230596      0.5450785
 Leave Link  202 at Sun Mar 21 14:35:23 2021, MaxMem=   33554432 cpu:       0.0
 (Enter C:\G09W\l301.exe)
 Standard basis: Dummy (5D, 7F)
 There are    31 symmetry adapted basis functions of A   symmetry.
 Integral buffers will be    262144 words long.
 Raffenetti 1 integral format.
 Two-electron integral symmetry is turned on.
    31 basis functions,    31 primitive gaussians,    31 cartesian basis functions
    23 alpha electrons       23 beta electrons
       nuclear repulsion energy       189.5388753808 Hartrees.
 IExCor=    0 DFT=F Ex=HF Corr=None ExCW=0 ScaHFX=  1.000000
 ScaDFX=  1.000000  1.000000  1.000000  1.000000 ScalE2=  1.000000  1.000000
 IRadAn=      0 IRanWt=     -1 IRanGd=            0 ICorTp=0
 NAtoms=   31 NActive=   31 NUniq=   31 SFac= 7.50D-01 NAtFMM=   80 NAOKFM=F Big=F
 Leave Link  301 at Sun Mar 21 14:35:23 2021, MaxMem=   33554432 cpu:       0.0
 (Enter C:\G09W\l402.exe)
 UFF calculation of energy and first derivatives.
 Energy per function type:
 Direct non-bonded                                   1662.421859528
 Non-bonded pair                                    -1660.916092036
 Harmonic stretch III                                   0.015980348
 UFF 3-term bend                                        0.094173552
 UFF 2-term bend                                        0.222741094
 UFF torsion fixed V                                    0.000037571
 UFF torsion w/ bond order V                            0.022819254
 UFF torsion w/ sp3 V                                   0.003365015
 Three term Wilson angle                                0.000002959
 Energy per function class:
        Coulomb               0.000000000
    Vanderwaals               1.505767492
     Stretching               0.015980348
        Bending               0.316914646
        Torsion               0.026221840
   Out-of-plane               0.000002959
 Energy=     1.86488729     NIter=   0.
 Dipole moment=       0.000000       0.000000       0.000000
 Leave Link  402 at Sun Mar 21 14:35:24 2021, MaxMem=   33554432 cpu:       0.0
 (Enter C:\G09W\l716.exe)
 Dipole        = 0.00000000D+00 0.00000000D+00 0.00000000D+00
 ***** Axes restored to original set *****
 -------------------------------------------------------------------
 Center     Atomic                   Forces (Hartrees/Bohr)
 Number     Number              X              Y              Z
 -------------------------------------------------------------------
      1        6          -0.194476261   -0.091892869   -0.037704229
      2        6          -0.185544114    0.039643242   -0.086763171
      3        6          -0.524583047   -0.054133138   -0.128687255
      4        6          -0.904628726    0.060697985    0.073414780
      5        6          -0.041403225   -0.150937162    0.188051599
      6        6          -0.097092715   -0.039187914   -0.002186010
      7        6          -1.551999952    0.035407595    0.022847663
      8        6          -0.183297934    0.057682770   -0.089243084
      9        7          -0.182003422    0.083292592   -0.053907817
     10        1          -0.000389431    0.002247563    0.001792393
     11        1          -0.000276505    0.001329287    0.001527462
     12        1          -0.125935738   -0.004017192    0.022912574
     13        1           0.002641441    0.000785321   -0.002417709
     14        1          -0.107425413    0.082230673   -0.031482771
     15        1          -0.000582217    0.001301992    0.014785429
     16        1          -0.002316086    0.014041198   -0.028553500
     17        6           0.226626064   -0.067613087    0.072750117
     18        6           0.115159605   -0.023220953    0.058676499
     19        6           1.543912515    0.028347682    0.049414759
     20        6           0.809778465    0.054868445    0.027139787
     21        6           0.829298440   -0.137278866   -0.095259286
     22        8           0.385878193    0.027563162    0.066950197
     23        6           0.001342920    0.001632698   -0.001355224
     24        1          -0.056707024    0.135163429   -0.132428890
     25        1           0.008600422   -0.006073077    0.002452472
     26        1           0.084895028   -0.078514590    0.083298510
     27        1           0.038819578    0.015997034    0.007356398
     28        1           0.109972714    0.010304451   -0.005251275
     29        1          -0.002191728    0.008114506    0.002839756
     30        1          -0.001908643   -0.006432015    0.005964792
     31        1           0.005836796   -0.001350765   -0.006934968
 -------------------------------------------------------------------
 Cartesian Forces:  Max     1.551999952 RMS     0.291231217
 Leave Link  716 at Sun Mar 21 14:35:24 2021, MaxMem=   33554432 cpu:       0.0
 (Enter C:\G09W\l103.exe)

 GradGradGradGradGradGradGradGradGradGradGradGradGradGradGradGradGradGrad
 Berny optimization.
 Search for a local minimum.
 Step number   1 out of a maximum of    2
 All quantities printed in internal units (Hartrees-Bohrs-Radians)
 Second derivative matrix not updated -- unit matrix used.
 Quadratic step=2.809D+00 exceeds max=1.000D-01 adjusted using Lamda=-2.705D+01.
 Angle between NR and scaled steps=   0.00 degrees.
 Angle between quadratic step and forces=   0.00 degrees.
 Linear search not attempted -- first point.
 TrRot=  0.000000  0.000000  0.000000  0.000000  0.000000  0.000000
 Variable       Old X    -DE/DX   Delta X   Delta X   Delta X     New X
                                 (Linear)    (Quad)   (Total)
    X1        0.00000  -0.19448   0.00000  -0.00693  -0.00693  -0.00693
    Y1       -3.82840  -0.09189   0.00000  -0.00328  -0.00328  -3.83167
    Z1       -1.64198  -0.03770   0.00000  -0.00134  -0.00134  -1.64333
    X2        0.00019  -0.18554   0.00000  -0.00661  -0.00661  -0.00643
    Y2       -1.44999   0.03964   0.00000   0.00141   0.00141  -1.44857
    Z2       -2.79396  -0.08676   0.00000  -0.00309  -0.00309  -2.79705
    X3        0.00000  -0.52458   0.00000  -0.01870  -0.01870  -0.01870
    Y3        0.67312  -0.05413   0.00000  -0.00193  -0.00193   0.67119
    Z3       -1.21585  -0.12869   0.00000  -0.00459  -0.00459  -1.22044
    X4        0.00000  -0.90463   0.00000  -0.03225  -0.03225  -0.03225
    Y4        0.49095   0.06070   0.00000   0.00216   0.00216   0.49311
    Z4        1.41446   0.07341   0.00000   0.00262   0.00262   1.41708
    X5       -0.00019  -0.04140   0.00000  -0.00148  -0.00148  -0.00166
    Y5       -1.92431  -0.15094   0.00000  -0.00538  -0.00538  -1.92969
    Z5        2.53091   0.18805   0.00000   0.00670   0.00670   2.53761
    X6        0.00000  -0.09709   0.00000  -0.00346  -0.00346  -0.00346
    Y6       -4.06745  -0.03919   0.00000  -0.00140  -0.00140  -4.06884
    Z6        0.98039  -0.00219   0.00000  -0.00008  -0.00008   0.98031
    X7        0.00000  -1.55200   0.00000  -0.05533  -0.05533  -0.05533
    Y7        2.99881   0.03541   0.00000   0.00126   0.00126   3.00007
    Z7        2.38143   0.02285   0.00000   0.00081   0.00081   2.38225
    X8        0.00000  -0.18330   0.00000  -0.00653  -0.00653  -0.00653
    Y8        4.63058   0.05768   0.00000   0.00206   0.00206   4.63264
    Z8        0.35621  -0.08924   0.00000  -0.00318  -0.00318   0.35303
    X9        0.00000  -0.18200   0.00000  -0.00649  -0.00649  -0.00649
    Y9        3.20705   0.08329   0.00000   0.00297   0.00297   3.21002
    Z9       -1.80601  -0.05391   0.00000  -0.00192  -0.00192  -1.80793
   X10        0.00019  -0.00039   0.00000  -0.00001  -0.00001   0.00018
   Y10       -5.51724   0.00225   0.00000   0.00008   0.00008  -5.51716
   Z10       -2.81324   0.00179   0.00000   0.00006   0.00006  -2.81317
   X11        0.00000  -0.00028   0.00000  -0.00001  -0.00001  -0.00001
   Y11       -1.27122   0.00133   0.00000   0.00005   0.00005  -1.27117
   Z11       -4.83619   0.00153   0.00000   0.00005   0.00005  -4.83613
   X12       -0.00019  -0.12594   0.00000  -0.00449  -0.00449  -0.00468
   Y12       -2.12575  -0.00402   0.00000  -0.00014  -0.00014  -2.12590
   Z12        4.57276   0.02291   0.00000   0.00082   0.00082   4.57358
   X13        0.00000   0.00264   0.00000   0.00009   0.00009   0.00009
   Y13       -5.93544   0.00079   0.00000   0.00003   0.00003  -5.93541
   Z13        1.83530  -0.00242   0.00000  -0.00009  -0.00009   1.83522
   X14        0.00000  -0.10743   0.00000  -0.00383  -0.00383  -0.00383
   Y14        3.54399   0.08223   0.00000   0.00293   0.00293   3.54692
   Z14        4.35223  -0.03148   0.00000  -0.00112  -0.00112   4.35111
   X15       -0.00019  -0.00058   0.00000  -0.00002  -0.00002  -0.00021
   Y15        6.67243   0.00130   0.00000   0.00005   0.00005   6.67248
   Z15        0.26759   0.01479   0.00000   0.00053   0.00053   0.26811
   X16        0.00000  -0.00232   0.00000  -0.00008  -0.00008  -0.00008
   Y16        3.90285   0.01404   0.00000   0.00050   0.00050   3.90335
   Z16       -3.58405  -0.02855   0.00000  -0.00102  -0.00102  -3.58507
   X17        3.69347   0.22663   0.00000   0.00808   0.00808   3.70155
   Y17       -1.46019  -0.06761   0.00000  -0.00241  -0.00241  -1.46260
   Z17        3.19326   0.07275   0.00000   0.00259   0.00259   3.19585
   X18        3.77813   0.11516   0.00000   0.00411   0.00411   3.78223
   Y18        1.11910  -0.02322   0.00000  -0.00083  -0.00083   1.11827
   Z18        4.50908   0.05868   0.00000   0.00209   0.00209   4.51117
   X19        3.77945   1.54391   0.00000   0.05504   0.05504   3.83449
   Y19        2.99881   0.02835   0.00000   0.00101   0.00101   2.99982
   Z19        2.38143   0.04941   0.00000   0.00176   0.00176   2.38319
   X20        3.77832   0.80978   0.00000   0.02887   0.02887   3.80719
   Y20        1.98346   0.05487   0.00000   0.00196   0.00196   1.98541
   Z20        0.07219   0.02714   0.00000   0.00097   0.00097   0.07316
   X21        3.75848   0.82930   0.00000   0.02956   0.02956   3.78804
   Y21       -0.76496  -0.13728   0.00000  -0.00489  -0.00489  -0.76986
   Z21        0.44352  -0.09526   0.00000  -0.00340  -0.00340   0.44012
   X22        3.77378   0.38588   0.00000   0.01376   0.01376   3.78754
   Y22       -2.26276   0.02756   0.00000   0.00098   0.00098  -2.26178
   Z22       -1.31223   0.06695   0.00000   0.00239   0.00239  -1.30984
   X23        6.10514   0.00134   0.00000   0.00005   0.00005   6.10519
   Y23        1.41295   0.00163   0.00000   0.00006   0.00006   1.41301
   Z23        6.18186  -0.00136   0.00000  -0.00005  -0.00005   6.18181
   X24        1.92639  -0.05671   0.00000  -0.00202  -0.00202   1.92437
   Y24       -2.45154   0.13516   0.00000   0.00482   0.00482  -2.44672
   Z24        3.60711  -0.13243   0.00000  -0.00472  -0.00472   3.60239
   X25        5.31032   0.00860   0.00000   0.00031   0.00031   5.31063
   Y25       -2.66073  -0.00607   0.00000  -0.00022  -0.00022  -2.66095
   Z25        3.65813   0.00245   0.00000   0.00009   0.00009   3.65822
   X26        2.07832   0.08490   0.00000   0.00303   0.00303   2.08135
   Y26        1.37667  -0.07851   0.00000  -0.00280  -0.00280   1.37387
   Z26        5.66559   0.08330   0.00000   0.00297   0.00297   5.66856
   X27        3.77851   0.03882   0.00000   0.00138   0.00138   3.77989
   Y27        5.01911   0.01600   0.00000   0.00057   0.00057   5.01968
   Z27        2.71308   0.00736   0.00000   0.00026   0.00026   2.71334
   X28        3.78191   0.10997   0.00000   0.00392   0.00392   3.78583
   Y28        2.89355   0.01030   0.00000   0.00037   0.00037   2.89392
   Z28       -1.74441  -0.00525   0.00000  -0.00019  -0.00019  -1.74459
   X29        6.14255  -0.00219   0.00000  -0.00008  -0.00008   6.14248
   Y29        3.28227   0.00811   0.00000   0.00029   0.00029   3.28255
   Z29        7.07098   0.00284   0.00000   0.00010   0.00010   7.07108
   X30        6.10079  -0.00191   0.00000  -0.00007  -0.00007   6.10072
   Y30       -0.00605  -0.00643   0.00000  -0.00023  -0.00023  -0.00628
   Z30        7.68816   0.00596   0.00000   0.00021   0.00021   7.68837
   X31        7.85805   0.00584   0.00000   0.00021   0.00021   7.85826
   Y31        1.19109  -0.00135   0.00000  -0.00005  -0.00005   1.19105
   Z31        5.10150  -0.00693   0.00000  -0.00025  -0.00025   5.10126
         Item               Value     Threshold  Converged?
 Maximum Force            1.552000     0.000450     NO 
 RMS     Force            0.291231     0.000300     NO 
 Maximum Displacement     0.055328     0.001800     NO 
 RMS     Displacement     0.010382     0.001200     NO 
 Predicted change in Energy=-5.012208D-03
 GradGradGradGradGradGradGradGradGradGradGradGradGradGradGradGradGradGrad

 Leave Link  103 at Sun Mar 21 14:35:24 2021, MaxMem=   33554432 cpu:       0.0
 (Enter C:\G09W\l9999.exe)
 1|1|UNPC-NICOLò-ASUS|Force|RUFF|ZDO|C14H15N1O1|NIK|21-Mar-2021|0||#P U
 FF force||Gaussian input prepared by ASE||0,1|C,0.,-2.0259,-0.8689|C,0
 .0001,-0.7673,-1.4785|C,0.,0.3562,-0.6434|C,0.,0.2598,0.7485|C,-0.0001
 ,-1.0183,1.3393|C,0.,-2.1524,0.5188|C,0.,1.5869,1.2602|C,0.,2.4504,0.1
 885|N,0.,1.6971,-0.9557|H,0.0001,-2.9196,-1.4887|H,0.,-0.6727,-2.5592|
 H,-0.0001,-1.1249,2.4198|H,0.,-3.1409,0.9712|H,0.,1.8754,2.3031|H,-0.0
 001,3.5309,0.1416|H,0.,2.0653,-1.8966|C,1.9545,-0.7727,1.6898|C,1.9993
 ,0.5922,2.3861|C,2.,1.5869,1.2602|C,1.9994,1.0496,0.0382|C,1.9889,-0.4
 048,0.2347|O,1.997,-1.1974,-0.6944|C,3.2307,0.7477,3.2713|H,1.0194,-1.
 2973,1.9088|H,2.8101,-1.408,1.9358|H,1.0998,0.7285,2.9981|H,1.9995,2.6
 56,1.4357|H,2.0013,1.5312,-0.9231|H,3.2505,1.7369,3.7418|H,3.2284,-0.0
 032,4.0684|H,4.1583,0.6303,2.6996||Version=IA32W-G09RevA.02|HF=1.86488
 73|RMSD=0.000e+000|RMSF=2.912e-001|Dipole=0.,0.,0.|PG=C01 [X(C14H15N1O
 1)]||@


 THERE IS NO SCIENCE WITHOUT FANCY, NOR ART WITHOUT FACTS.
     -- VLADIMIR NABAKOV
 Job cpu time:  0 days  0 hours  0 minutes  2.0 seconds.
 File lengths (MBytes):  RWF=      5 Int=      0 D2E=      0 Chk=      1 Scr=      1
 Normal termination of Gaussian 09 at Sun Mar 21 14:35:24 2021.
