 *******************************************************************************
 ** Site#: 36969        For non-commercial use only    Version 21.051W 64BITS **
 *******************************************************************************
 ** Cite this program as: MOPAC2016, Version: 21.051W, James J. P. Stewart,   **
 ** Stewart Computational Chemistry, web: HTTP://OpenMOPAC.net. Days left: 311**
 *******************************************************************************
 **                                                                           **
 **                                MOPAC2016                                  **
 **                                                                           **
 *******************************************************************************

                              PM7 CALCULATION RESULTS

 *******************************************************************************
 *  CALCULATION DONE:                                Thu Apr 15 15:24:52 2021  *
 *  PM7        - The PM7 Hamiltonian to be used
 *  T=         - A TIME OF 172800.0 SECONDS REQUESTED
 *  DUMP=N     - RESTART FILE WRITTEN EVERY 7200.0 SECONDS REQUESTED
 *******************************************************************************
PM7
 TSCoDe candidate

  ATOM    CHEMICAL      BOND LENGTH      BOND ANGLE     TWIST ANGLE 
 NUMBER    SYMBOL       (ANGSTROMS)      (DEGREES)       (DEGREES) 
   (I)                     NA:I           NB:NA:I       NC:NB:NA:I       NA    NB    NC 
     1       C         -0.76998600  *   -1.4514960  *   -0.5140650  *     0     0     0
     2       H         -1.30311500  *   -1.9153580  *   -1.3174980  *     0     0     0
     3       H         -2.52224700  *   -0.8660520  *    0.4999540  *     0     0     0
     4       H         -0.91910500  *   -0.4022070  *    1.3033580  *     0     0     0
     5       C          0.77003400  *   -1.4515140  *   -0.5140970  *     0     0     0
     6       H          1.30319900  *   -1.9153670  *   -1.3175120  *     0     0     0
     7       H          0.92458100  *   -0.4006030  *    1.3061340  *     0     0     0
     8       H          2.52221300  *   -0.8691800  *    0.4945360  *     0     0     0
     9       O         -0.00016900  *    1.9930000  *    1.4519780  *     0     0     0
    10       C         -1.16390700  *    1.5786570  *    0.7343140  *     0     0     0
    11       C          1.16369300  *    1.5787440  *    0.7344650  *     0     0     0
    12       O         -2.24364400  *    1.8265160  *    1.1636190  *     0     0     0
    13       O          2.24335600  *    1.8266840  *    1.1639100  *     0     0     0
    14       H         -1.36793800  *    0.4542990  *   -1.2131310  *     0     0     0
    15       H          1.36816200  *    0.4544020  *   -1.2129530  *     0     0     0
    16       C         -0.66730000  *    0.8660250  *   -0.5000000  *     0     0     0
    17       C          2.14853334      76.5989330  *   59.1975450  *    16    12     7
    18       C          0.66730000  *    0.8660250  *   -0.5000000  *     0     0     0
    19       C          2.14853334     106.7574182  *   10.4973398  *    18    10     7
 


          CARTESIAN COORDINATES 

    NO.       ATOM           X           Y           Z

     1         C         -0.7700     -1.4515     -0.5141
     2         H         -1.3031     -1.9154     -1.3175
     3         H         -2.5222     -0.8661      0.5000
     4         H         -0.9191     -0.4022      1.3034
     5         C          0.7700     -1.4515     -0.5141
     6         H          1.3032     -1.9154     -1.3175
     7         H          0.9246     -0.4006      1.3061
     8         H          2.5222     -0.8692      0.4945
     9         O         -0.0002      1.9930      1.4520
    10         C         -1.1639      1.5787      0.7343
    11         C          1.1637      1.5787      0.7345
    12         O         -2.2436      1.8265      1.1636
    13         O          2.2434      1.8267      1.1639
    14         H         -1.3679      0.4543     -1.2131
    15         H          1.3682      0.4544     -1.2130
    16         C         -0.6673      0.8660     -0.5000
    17         C         -1.4523     -0.8660      0.5000
    18         C          0.6673      0.8660     -0.5000
    19         C          1.4523     -0.8660      0.5000

 General Reference for PM7:
 "Optimization of Parameters for Semiempirical Methods VI: More Modifications to the 
 NDDO Approximations and Re-optimization of Parameters", J. J. P. Stewart, J. Mol. Mod., 1:32, 19 (2013)
 https://link.springer.com/article/10.1007/s00894-012-1667-x

           Empirical Formula: C8 H8 O3  =    19 atoms



      MOLECULAR POINT GROUP   :   Cs  


      RHF CALCULATION, NO. OF DOUBLY OCCUPIED LEVELS = 29


          Geometry optimization using EF

          DIAGONAL MATRIX USED AS START HESSIAN

 CYCLE:     1 TIME:   0.047 TIME LEFT:  2.00D  GRAD.:   188.958 HEAT: 0.8078119
 CYCLE:     2 TIME:   0.031 TIME LEFT:  2.00D  GRAD.:   290.257 HEAT: -3.670451
 CYCLE:     3 TIME:   0.008 TIME LEFT:  2.00D  GRAD.:   124.398 HEAT: -12.39243
 CYCLE:     4 TIME:   0.012 TIME LEFT:  2.00D  GRAD.:   413.426 HEAT: -12.66992
 CYCLE:     5 TIME:   0.000 TIME LEFT:  2.00D  GRAD.:   312.547 HEAT: -18.54265
 CYCLE:     6 TIME:   0.016 TIME LEFT:  2.00D  GRAD.:   129.026 HEAT: -23.83139
 CYCLE:     7 TIME:   0.008 TIME LEFT:  2.00D  GRAD.:   135.800 HEAT: -25.03643
 CYCLE:     8 TIME:   0.008 TIME LEFT:  2.00D  GRAD.:    66.676 HEAT: -27.19581
 CYCLE:     9 TIME:   0.012 TIME LEFT:  2.00D  GRAD.:    88.472 HEAT: -27.87264
 CYCLE:    10 TIME:   0.008 TIME LEFT:  2.00D  GRAD.:    43.434 HEAT: -29.15800
 CYCLE:    11 TIME:   0.000 TIME LEFT:  2.00D  GRAD.:    44.228 HEAT: -30.95426
 CYCLE:    12 TIME:   0.000 TIME LEFT:  2.00D  GRAD.:    61.324 HEAT: -33.70430
 CYCLE:    13 TIME:   0.000 TIME LEFT:  2.00D  GRAD.:    63.624 HEAT: -36.19342
 CYCLE:    14 TIME:   0.016 TIME LEFT:  2.00D  GRAD.:    99.820 HEAT: -37.80777
 CYCLE:    15 TIME:   0.008 TIME LEFT:  2.00D  GRAD.:    77.632 HEAT: -38.50424
 CYCLE:    16 TIME:   0.000 TIME LEFT:  2.00D  GRAD.:    95.928 HEAT: -38.64573
 CYCLE:    17 TIME:   0.012 TIME LEFT:  2.00D  GRAD.:    65.580 HEAT: -39.80537
 CYCLE:    18 TIME:   0.008 TIME LEFT:  2.00D  GRAD.:    36.649 HEAT: -40.32777
 CYCLE:    19 TIME:   0.008 TIME LEFT:  2.00D  GRAD.:    32.043 HEAT: -40.53851
 CYCLE:    20 TIME:   0.000 TIME LEFT:  2.00D  GRAD.:    18.309 HEAT: -40.87774
 CYCLE:    21 TIME:   0.008 TIME LEFT:  2.00D  GRAD.:    42.251 HEAT: -40.93807
 CYCLE:    22 TIME:   0.008 TIME LEFT:  2.00D  GRAD.:    24.065 HEAT: -41.48788
 CYCLE:    23 TIME:   0.008 TIME LEFT:  2.00D  GRAD.:    27.620 HEAT: -41.55412
 CYCLE:    24 TIME:   0.008 TIME LEFT:  2.00D  GRAD.:    12.132 HEAT: -41.78251
 CYCLE:    25 TIME:   0.000 TIME LEFT:  2.00D  GRAD.:    18.111 HEAT: -41.90568
 CYCLE:    26 TIME:   0.008 TIME LEFT:  2.00D  GRAD.:    15.943 HEAT: -42.05122
 CYCLE:    27 TIME:   0.008 TIME LEFT:  2.00D  GRAD.:    23.361 HEAT: -42.09700
 CYCLE:    28 TIME:   0.000 TIME LEFT:  2.00D  GRAD.:    15.809 HEAT: -42.15943
 CYCLE:    29 TIME:   0.000 TIME LEFT:  2.00D  GRAD.:     8.216 HEAT: -42.19809
 CYCLE:    30 TIME:   0.000 TIME LEFT:  2.00D  GRAD.:     2.677 HEAT: -42.22791
 CYCLE:    31 TIME:   0.020 TIME LEFT:  2.00D  GRAD.:     2.803 HEAT: -42.23972
 CYCLE:    32 TIME:   0.000 TIME LEFT:  2.00D  GRAD.:     2.874 HEAT: -42.25269
 CYCLE:    33 TIME:   0.008 TIME LEFT:  2.00D  GRAD.:     1.761 HEAT: -42.25941
 CYCLE:    34 TIME:   0.008 TIME LEFT:  2.00D  GRAD.:     1.388 HEAT: -42.26273
 CYCLE:    35 TIME:   0.000 TIME LEFT:  2.00D  GRAD.:     0.998 HEAT: -42.26491

     GRADIENT =  0.99848 IS LESS THAN CUTOFF =  1.00000



 -------------------------------------------------------------------------------
 PM7
 TSCoDe candidate



     GEOMETRY OPTIMISED USING EIGENVECTOR FOLLOWING (EF).     
     SCF FIELD WAS ACHIEVED                                   


                              PM7 CALCULATION
                                                       MOPAC2016 (Version: 21.051W)
                                                       Thu Apr 15 15:24:52 2021
                                                       No. of days remaining = 311




          FINAL HEAT OF FORMATION =        -42.26491 KCAL/MOL =    -176.83638 KJ/MOL


          TOTAL ENERGY            =      -1973.70780 EV
          ELECTRONIC ENERGY       =      -9720.61786 EV  POINT GROUP:     Cs  
          CORE-CORE REPULSION     =       7746.91006 EV
          COSMO AREA              =        170.14 SQUARE ANGSTROMS
          COSMO VOLUME            =        177.91 CUBIC ANGSTROMS

          GRADIENT NORM           =          0.99848 = 0.22907 PER ATOM
          IONIZATION POTENTIAL    =         10.098382 EV
          HOMO LUMO ENERGIES (EV) =        -10.098 -1.454
          NO. OF FILLED LEVELS    =         29
          MOLECULAR WEIGHT        =        152.1494

          MOLECULAR DIMENSIONS (Angstroms)

            Atom       Atom       Distance
            O    13    H     2     6.06812
            O    12    H     6     5.66192
            H    14    H     7     3.02907


          SCF CALCULATIONS        =         46
 
          WALL-CLOCK TIME         =          0.352 SECONDS
          COMPUTATION TIME        =          1.000 SECONDS




  ATOM    CHEMICAL      BOND LENGTH      BOND ANGLE     TWIST ANGLE 
 NUMBER    SYMBOL       (ANGSTROMS)      (DEGREES)       (DEGREES) 
   (I)                     NA:I           NB:NA:I       NC:NB:NA:I       NA    NB    NC 
     1       C         -0.70357353  *   -1.7410971  *   -0.5185018  *     0     0     0
     2       H         -1.22524032  *   -2.2814340  *   -1.3110135  *     0     0     0
     3       H         -2.48806540  *   -0.8065232  *    0.2503964  *     0     0     0
     4       H         -1.05180297  *   -0.6946623  *    1.3415338  *     0     0     0
     5       C          0.69813463  *   -1.7427898  *   -0.5159807  *     0     0     0
     6       H          1.22031674  *   -2.2859980  *   -1.3059947  *     0     0     0
     7       H          1.04318622  *   -0.6909240  *    1.3422116  *     0     0     0
     8       H          2.48312392  *   -0.8137226  *    0.2572895  *     0     0     0
     9       O          0.00390478  *    2.1457755  *    1.4931910  *     0     0     0
    10       C         -1.14243179  *    1.7217127  *    0.8021022  *     0     0     0
    11       C          1.14939863  *    1.7320294  *    0.7941060  *     0     0     0
    12       O         -2.22162916  *    1.9988978  *    1.2231535  *     0     0     0
    13       O          2.22827875  *    2.0286175  *    1.2027050  *     0     0     0
    14       H         -1.33419433  *    0.8527098  *   -1.2536650  *     0     0     0
    15       H          1.33990631  *    0.8495537  *   -1.2551736  *     0     0     0
    16       C         -0.69424426  *    0.9498513  *   -0.3909596  *     0     0     0
    17       C          2.14853334      86.5611712  *   58.8236883  *    16    12     7
    18       C          0.70005937  *    0.9505790  *   -0.3923866  *     0     0     0
    19       C          2.14853334     112.0515122  *   12.4615476  *    18    10     7

                             CARTESIAN COORDINATES

   1    C       -0.703573531    -1.741097136    -0.518501832
   2    H       -1.225240320    -2.281434022    -1.311013542
   3    H       -2.488065397    -0.806523243     0.250396448
   4    H       -1.051802966    -0.694662322     1.341533812
   5    C        0.698134633    -1.742789831    -0.515980684
   6    H        1.220316739    -2.285997977    -1.305994675
   7    H        1.043186223    -0.690923952     1.342211609
   8    H        2.483123917    -0.813722553     0.257289482
   9    O        0.003904784     2.145775459     1.493190998
  10    C       -1.142431794     1.721712665     0.802102162
  11    C        1.149398630     1.732029395     0.794105952
  12    O       -2.221629156     1.998897829     1.223153541
  13    O        2.228278746     2.028617473     1.202705016
  14    H       -1.334194331     0.852709847    -1.253664981
  15    H        1.339906311     0.849553677    -1.255173565
  16    C       -0.694244260     0.949851305    -0.390959573
  17    C       -1.416107735    -0.934493308     0.346843934
  18    C        0.700059374     0.950579023    -0.392386560
  19    C        1.410512048    -0.936306275     0.349985573


           Empirical Formula: C8 H8 O3  =    19 atoms



      MOLECULAR POINT GROUP   :   Cs  


                  EIGENVALUES  
 -32.40769 -32.06143 -31.45347 -29.98887 -27.57049 -26.20759 -23.50903 -22.82246
 -20.99785 -20.82667 -18.75845 -18.14840 -17.13446 -16.72233 -16.26845 -15.80229
 -15.36199 -14.74205 -14.61748 -14.55048 -14.28101 -13.76346 -13.14503 -12.98360
 -12.09954 -11.54849 -11.20188 -10.31884 -10.09838  -1.45443  -0.85867   0.59431
   0.95788   1.06010   1.40316   2.36183   2.47453   3.55817   3.96221   4.12170
   4.15438   4.60832   4.81081   4.81264   4.88217   5.08456   5.21052   5.23796
   5.32958   5.50603   5.51542   5.70793


              NET ATOMIC CHARGES AND DIPOLE CONTRIBUTIONS

  ATOM NO.   TYPE          CHARGE      No. of ELECS.   s-Pop       p-Pop       
    1          C          -0.146853        4.1469     1.08428     3.06257
    2          H           0.153753        0.8462     0.84625
    3          H           0.155745        0.8443     0.84425
    4          H           0.158634        0.8414     0.84137
    5          C          -0.147247        4.1472     1.08421     3.06304
    6          H           0.153694        0.8463     0.84631
    7          H           0.158475        0.8415     0.84153
    8          H           0.155433        0.8446     0.84457
    9          O          -0.446660        6.4467     1.88167     4.56499
   10          C           0.577573        3.4224     1.12180     2.30063
   11          C           0.577232        3.4228     1.12194     2.30083
   12          O          -0.384193        6.3842     1.87528     4.50891
   13          O          -0.383269        6.3833     1.87535     4.50792
   14          H           0.187406        0.8126     0.81259
   15          H           0.187466        0.8125     0.81253
   16          C          -0.254740        4.2547     1.10986     3.14488
   17          C          -0.223819        4.2238     1.11182     3.11200
   18          C          -0.254752        4.2548     1.10988     3.14488
   19          C          -0.223879        4.2239     1.11167     3.11221
 DIPOLE           X         Y         Z       TOTAL
 POINT-CHG.    -0.006    -4.407    -4.076     6.003
 HYBRID        -0.000     0.391     0.447     0.594
 SUM           -0.006    -4.017    -3.628     5.413


          ATOMIC ORBITAL ELECTRON POPULATIONS

     Atom    s        px        py        pz   
    1  C   1.08428   1.00686   0.99929   1.05642
    2  H   0.84625
    3  H   0.84425
    4  H   0.84137
    5  C   1.08421   1.00691   0.99991   1.05623
    6  H   0.84631
    7  H   0.84153
    8  H   0.84457
    9  O   1.88167   1.29240   1.71606   1.55654
   10  C   1.12180   0.77647   0.72695   0.79721
   11  C   1.12194   0.77646   0.72884   0.79554
   12  O   1.87528   1.31668   1.53661   1.65562
   13  O   1.87535   1.31682   1.53415   1.65695
   14  H   0.81259
   15  H   0.81253
   16  C   1.10986   1.02903   1.04027   1.07558
   17  C   1.11182   1.10820   0.94053   1.06327
   18  C   1.10988   1.02898   1.03947   1.07642
   19  C   1.11167   1.10870   0.94088   1.06262

 **********************
 *                    *
 * JOB ENDED NORMALLY *
 *                    *
 **********************



 TOTAL JOB TIME:             0.36 SECONDS

 == MOPAC DONE ==
