 *******************************************************************************
 ** Site#: 36969        For non-commercial use only    Version 21.051W 64BITS **
 *******************************************************************************
 ** Cite this program as: MOPAC2016, Version: 21.051W, James J. P. Stewart,   **
 ** Stewart Computational Chemistry, web: HTTP://OpenMOPAC.net. Days left: 334**
 *******************************************************************************
 **                                                                           **
 **                                MOPAC2016                                  **
 **                                                                           **
 *******************************************************************************

                              PM7 CALCULATION RESULTS

 *******************************************************************************
 *  CALCULATION DONE:                                Tue Mar 23 12:58:28 2021  *
 *  PM7        - The PM7 Hamiltonian to be used
 *  1SCF       - DO 1 SCF AND THEN STOP 
 *  T=         - A TIME OF 172800.0 SECONDS REQUESTED
 *  DUMP=N     - RESTART FILE WRITTEN EVERY 7200.0 SECONDS REQUESTED
 *  RELSCF     - DEFAULT SCF CRITERION MULTIPLIED BY 0.0001
 *              (DEFAULT SCF CRITERION = 0.00010)
 *  GRADIENTS  - ALL GRADIENTS TO BE PRINTED
 *******************************************************************************
PM7 1SCF GRADIENTS RELSCF=0.0001
 Title: ASE calculation

   ATOM   CHEMICAL          X               Y               Z
  NUMBER   SYMBOL      (ANGSTROMS)     (ANGSTROMS)     (ANGSTROMS)
 
     1       C          0.65168460  *  -2.39474112  *   1.01654893  *
     2       C          0.24347311  *  -2.20124086  *  -0.41298372  *
     3       C          0.32142487  *  -0.89022242  *  -0.95412942  *
     4       C          0.51818368  *   0.23584451  *  -0.18789231  *
     5       C          0.94289270  *   0.12182318  *   1.24866209  *
     6       C          0.38858479  *  -1.15873251  *   1.88388725  *
     7       C         -0.25959702  *  -3.22955855  *  -1.18576439  *
     8       C         -0.25084757  *  -4.65530855  *  -0.71244506  *
     9       N          0.42203823  *   1.46740877  *  -0.78551183  *
    10       C          0.36658136  *   2.72920121  *  -0.02192051  *
    11       C          1.03621642  *   3.83092825  *  -0.85666000  *
    12       C         -1.08943921  *   3.10406310  *   0.28064943  *
    13       H          0.14501377  *  -3.27122944  *   1.46691971  *
    14       H          1.73398618  *  -2.64659604  *   1.02661289  *
    15       H          0.12310633  *  -0.78477039  *  -2.02196155  *
    16       H          0.61893124  *   0.99290178  *   1.85516708  *
    17       H          2.05522261  *   0.11965934  *   1.28139434  *
    18       H         -0.70156143  *  -1.04660470  *   2.04827944  *
    19       H          0.83535991  *  -1.30164040  *   2.88641148  *
    20       H         -0.17950341  *  -3.13715688  *  -2.27793257  *
    21       H          0.77769766  *  -5.02034934  *  -0.58572933  *
    22       H         -0.76885872  *  -4.78530258  *   0.24467073  *
    23       H         -0.73740186  *  -5.32473722  *  -1.43454727  *
    24       H         -0.09409410  *   1.50038221  *  -1.67028010  *
    25       H          0.93966910  *   2.61050500  *   0.93279413  *
    26       H          1.08062759  *   4.76686480  *  -0.29002416  *
    27       H          2.06101137  *   3.55856209  *  -1.13107411  *
    28       H          0.49219692  *   4.03289422  *  -1.78552791  *
    29       H         -1.69012296  *   3.18242891  *  -0.63863379  *
    30       H         -1.15826515  *   4.06096547  *   0.80322099  *
    31       H         -1.58882711  *   2.34338155  *   0.89108723  *
    32       C         -2.98813166  *  -1.07114620  *   0.25707090  *
    33       C         -2.71991700  *  -2.59058387  *   0.12626883  *
    34       C         -2.19387589  *  -2.77257864  *  -1.30658296  *
    35       C         -2.26889965  *  -1.57668262  *  -1.98901761  *
    36       C         -2.57334424  *  -0.48422298  *  -1.09676240  *
    37       O         -2.53158941  *   0.70854778  *  -1.31080570  *
    38       C         -3.98890339  *  -3.42232497  *   0.31337146  *
    39       H         -2.41783656  *  -0.61317356  *   1.07512784  *
    40       H         -4.04893389  *  -0.84526507  *   0.45074608  *
    41       H         -1.96680652  *  -2.90494687  *   0.87716456  *
    42       H         -2.35280099  *  -3.74453570  *  -1.77185036  *
    43       H         -2.09890536  *  -1.42536435  *  -3.03129851  *
    44       H         -4.68749023  *  -3.27210047  *  -0.51768120  *
    45       H         -4.51370427  *  -3.14980294  *   1.23524335  *
    46       H         -3.75998365  *  -4.49291663  *   0.36393278  *
 


          CARTESIAN COORDINATES 

    NO.       ATOM           X           Y           Z

     1         C          0.6517     -2.3947      1.0165
     2         C          0.2435     -2.2012     -0.4130
     3         C          0.3214     -0.8902     -0.9541
     4         C          0.5182      0.2358     -0.1879
     5         C          0.9429      0.1218      1.2487
     6         C          0.3886     -1.1587      1.8839
     7         C         -0.2596     -3.2296     -1.1858
     8         C         -0.2508     -4.6553     -0.7124
     9         N          0.4220      1.4674     -0.7855
    10         C          0.3666      2.7292     -0.0219
    11         C          1.0362      3.8309     -0.8567
    12         C         -1.0894      3.1041      0.2806
    13         H          0.1450     -3.2712      1.4669
    14         H          1.7340     -2.6466      1.0266
    15         H          0.1231     -0.7848     -2.0220
    16         H          0.6189      0.9929      1.8552
    17         H          2.0552      0.1197      1.2814
    18         H         -0.7016     -1.0466      2.0483
    19         H          0.8354     -1.3016      2.8864
    20         H         -0.1795     -3.1372     -2.2779
    21         H          0.7777     -5.0203     -0.5857
    22         H         -0.7689     -4.7853      0.2447
    23         H         -0.7374     -5.3247     -1.4345
    24         H         -0.0941      1.5004     -1.6703
    25         H          0.9397      2.6105      0.9328
    26         H          1.0806      4.7669     -0.2900
    27         H          2.0610      3.5586     -1.1311
    28         H          0.4922      4.0329     -1.7855
    29         H         -1.6901      3.1824     -0.6386
    30         H         -1.1583      4.0610      0.8032
    31         H         -1.5888      2.3434      0.8911
    32         C         -2.9881     -1.0711      0.2571
    33         C         -2.7199     -2.5906      0.1263
    34         C         -2.1939     -2.7726     -1.3066
    35         C         -2.2689     -1.5767     -1.9890
    36         C         -2.5733     -0.4842     -1.0968
    37         O         -2.5316      0.7085     -1.3108
    38         C         -3.9889     -3.4223      0.3134
    39         H         -2.4178     -0.6132      1.0751
    40         H         -4.0489     -0.8453      0.4507
    41         H         -1.9668     -2.9049      0.8772
    42         H         -2.3528     -3.7445     -1.7719
    43         H         -2.0989     -1.4254     -3.0313
    44         H         -4.6875     -3.2721     -0.5177
    45         H         -4.5137     -3.1498      1.2352
    46         H         -3.7600     -4.4929      0.3639

 General Reference for PM7:
 "Optimization of Parameters for Semiempirical Methods VI: More Modifications to the 
 NDDO Approximations and Re-optimization of Parameters", J. J. P. Stewart, J. Mol. Mod., 1:32, 19 (2013)
 https://link.springer.com/article/10.1007/s00894-012-1667-x

           Empirical Formula: C17 H27 N O  =    46 atoms



      MOLECULAR POINT GROUP   :   C1  


      RHF CALCULATION, NO. OF DOUBLY OCCUPIED LEVELS = 53

  SCF CRITERION =    0.1000E-07

 -------------------------------------------------------------------------------
 PM7 1SCF GRADIENTS RELSCF=0.0001
 Title: ASE calculation



     1SCF WAS SPECIFIED, SO BFGS WAS NOT USED                 
     SCF FIELD WAS ACHIEVED                                   


                              PM7 CALCULATION
                                                       MOPAC2016 (Version: 21.051W)
                                                       Tue Mar 23 12:58:28 2021
                                                       No. of days remaining = 334




          FINAL HEAT OF FORMATION =        -26.70671 KCAL/MOL =    -111.74089 KJ/MOL


          TOTAL ENERGY            =      -2933.35947 EV
          ELECTRONIC ENERGY       =     -24208.62950 EV  POINT GROUP:     C1  
          CORE-CORE REPULSION     =      21275.27003 EV
          COSMO AREA              =        288.88 SQUARE ANGSTROMS
          COSMO VOLUME            =        358.59 CUBIC ANGSTROMS

          GRADIENT NORM           =         57.23584 = 8.43896 PER ATOM
          IONIZATION POTENTIAL    =          7.360664 EV
          HOMO LUMO ENERGIES (EV) =         -7.361 -0.326
          NO. OF FILLED LEVELS    =         53
          MOLECULAR WEIGHT        =        261.4064

          MOLECULAR DIMENSIONS (Angstroms)

            Atom       Atom       Distance
            H    46    H    26    10.46913
            H    43    H    19     6.51477
            H    30    H    21     6.16843


          SCF CALCULATIONS        =          1
 
          WALL-CLOCK TIME         =          0.078 SECONDS
          COMPUTATION TIME        =          0.203 SECONDS

          LARGEST ATOMIC GRADIENTS

          Atom     Label                     Cartesian Gradients           Cartesian Coordinates       |Gradient|
                                           X          Y          Z        X          Y          Z

            34       C                  39.482     -9.369      2.191   -2.19388   -2.77258   -1.30658     40.638
             7       C                 -38.842      9.525     -2.454   -0.25960   -3.22956   -1.18576     40.069
            44       H                   1.065     -0.319      0.298   -4.68749   -3.27210   -0.51768      1.151
             4       C                  -1.000     -0.406      0.234    0.51818    0.23584   -0.18789      1.104
            14       H                  -1.022     -0.105     -0.125    1.73399   -2.64660    1.02661      1.034
            27       H                  -0.655      0.673      0.351    2.06101    3.55856   -1.13107      1.002
             2       C                   0.982     -0.165      0.004    0.24347   -2.20124   -0.41298      0.995
            43       H                  -0.024     -0.274      0.871   -2.09891   -1.42536   -3.03130      0.913
            31       H                   0.081      0.883     -0.170   -1.58883    2.34338    0.89109      0.903
            25       H                  -0.011     -0.560     -0.667    0.93967    2.61051    0.93279      0.871



       FINAL  POINT  AND  DERIVATIVES

   PARAMETER     ATOM    TYPE            VALUE        GRADIENT
      1          1  C    CARTESIAN X     0.651685     -0.092210  KCAL/ANGSTROM
      2          1  C    CARTESIAN Y    -2.394741     -0.048541  KCAL/ANGSTROM
      3          1  C    CARTESIAN Z     1.016549      0.241695  KCAL/ANGSTROM
      4          2  C    CARTESIAN X     0.243473      0.981668  KCAL/ANGSTROM
      5          2  C    CARTESIAN Y    -2.201241     -0.165051  KCAL/ANGSTROM
      6          2  C    CARTESIAN Z    -0.412984      0.003900  KCAL/ANGSTROM
      7          3  C    CARTESIAN X     0.321425      0.263214  KCAL/ANGSTROM
      8          3  C    CARTESIAN Y    -0.890222      0.035449  KCAL/ANGSTROM
      9          3  C    CARTESIAN Z    -0.954129     -0.095085  KCAL/ANGSTROM
     10          4  C    CARTESIAN X     0.518184     -0.999682  KCAL/ANGSTROM
     11          4  C    CARTESIAN Y     0.235845     -0.406162  KCAL/ANGSTROM
     12          4  C    CARTESIAN Z    -0.187892      0.234154  KCAL/ANGSTROM
     13          5  C    CARTESIAN X     0.942893     -0.322670  KCAL/ANGSTROM
     14          5  C    CARTESIAN Y     0.121823      0.318597  KCAL/ANGSTROM
     15          5  C    CARTESIAN Z     1.248662      0.227227  KCAL/ANGSTROM
     16          6  C    CARTESIAN X     0.388585      0.102222  KCAL/ANGSTROM
     17          6  C    CARTESIAN Y    -1.158733      0.004395  KCAL/ANGSTROM
     18          6  C    CARTESIAN Z     1.883887      0.115356  KCAL/ANGSTROM
     19          7  C    CARTESIAN X    -0.259597    -38.842476  KCAL/ANGSTROM
     20          7  C    CARTESIAN Y    -3.229559      9.525216  KCAL/ANGSTROM
     21          7  C    CARTESIAN Z    -1.185764     -2.454092  KCAL/ANGSTROM
     22          8  C    CARTESIAN X    -0.250848     -0.578416  KCAL/ANGSTROM
     23          8  C    CARTESIAN Y    -4.655309     -0.182728  KCAL/ANGSTROM
     24          8  C    CARTESIAN Z    -0.712445      0.046009  KCAL/ANGSTROM
     25          9  N    CARTESIAN X     0.422038      0.737348  KCAL/ANGSTROM
     26          9  N    CARTESIAN Y     1.467409     -0.192856  KCAL/ANGSTROM
     27          9  N    CARTESIAN Z    -0.785512     -0.341263  KCAL/ANGSTROM
     28         10  C    CARTESIAN X     0.366581     -0.019776  KCAL/ANGSTROM
     29         10  C    CARTESIAN Y     2.729201     -0.464949  KCAL/ANGSTROM
     30         10  C    CARTESIAN Z    -0.021921     -0.234434  KCAL/ANGSTROM
     31         11  C    CARTESIAN X     1.036216     -0.401994  KCAL/ANGSTROM
     32         11  C    CARTESIAN Y     3.830928     -0.218927  KCAL/ANGSTROM
     33         11  C    CARTESIAN Z    -0.856660      0.428520  KCAL/ANGSTROM
     34         12  C    CARTESIAN X    -1.089439      0.382244  KCAL/ANGSTROM
     35         12  C    CARTESIAN Y     3.104063      0.015238  KCAL/ANGSTROM
     36         12  C    CARTESIAN Z     0.280649     -0.366936  KCAL/ANGSTROM
     37         13  H    CARTESIAN X     0.145014     -0.091069  KCAL/ANGSTROM
     38         13  H    CARTESIAN Y    -3.271229      0.709909  KCAL/ANGSTROM
     39         13  H    CARTESIAN Z     1.466920     -0.386686  KCAL/ANGSTROM
     40         14  H    CARTESIAN X     1.733986     -1.021506  KCAL/ANGSTROM
     41         14  H    CARTESIAN Y    -2.646596     -0.105156  KCAL/ANGSTROM
     42         14  H    CARTESIAN Z     1.026613     -0.124772  KCAL/ANGSTROM
     43         15  H    CARTESIAN X     0.123106      0.523357  KCAL/ANGSTROM
     44         15  H    CARTESIAN Y    -0.784770     -0.123460  KCAL/ANGSTROM
     45         15  H    CARTESIAN Z    -2.021962      0.123312  KCAL/ANGSTROM
     46         16  H    CARTESIAN X     0.618931     -0.297791  KCAL/ANGSTROM
     47         16  H    CARTESIAN Y     0.992902      0.541295  KCAL/ANGSTROM
     48         16  H    CARTESIAN Z     1.855167      0.109542  KCAL/ANGSTROM
     49         17  H    CARTESIAN X     2.055223     -0.028929  KCAL/ANGSTROM
     50         17  H    CARTESIAN Y     0.119659      0.415813  KCAL/ANGSTROM
     51         17  H    CARTESIAN Z     1.281394     -0.566123  KCAL/ANGSTROM
     52         18  H    CARTESIAN X    -0.701561      0.649244  KCAL/ANGSTROM
     53         18  H    CARTESIAN Y    -1.046605      0.169853  KCAL/ANGSTROM
     54         18  H    CARTESIAN Z     2.048279      0.135972  KCAL/ANGSTROM
     55         19  H    CARTESIAN X     0.835360      0.303483  KCAL/ANGSTROM
     56         19  H    CARTESIAN Y    -1.301640     -0.002703  KCAL/ANGSTROM
     57         19  H    CARTESIAN Z     2.886411     -0.064697  KCAL/ANGSTROM
     58         20  H    CARTESIAN X    -0.179503      0.077247  KCAL/ANGSTROM
     59         20  H    CARTESIAN Y    -3.137157     -0.114098  KCAL/ANGSTROM
     60         20  H    CARTESIAN Z    -2.277933     -0.139253  KCAL/ANGSTROM
     61         21  H    CARTESIAN X     0.777698     -0.189343  KCAL/ANGSTROM
     62         21  H    CARTESIAN Y    -5.020349     -0.139874  KCAL/ANGSTROM
     63         21  H    CARTESIAN Z    -0.585729     -0.326390  KCAL/ANGSTROM
     64         22  H    CARTESIAN X    -0.768859      0.203014  KCAL/ANGSTROM
     65         22  H    CARTESIAN Y    -4.785303      0.225434  KCAL/ANGSTROM
     66         22  H    CARTESIAN Z     0.244671     -0.443790  KCAL/ANGSTROM
     67         23  H    CARTESIAN X    -0.737402     -0.283748  KCAL/ANGSTROM
     68         23  H    CARTESIAN Y    -5.324737      0.009400  KCAL/ANGSTROM
     69         23  H    CARTESIAN Z    -1.434547     -0.198023  KCAL/ANGSTROM
     70         24  H    CARTESIAN X    -0.094094      0.233020  KCAL/ANGSTROM
     71         24  H    CARTESIAN Y     1.500382     -0.136560  KCAL/ANGSTROM
     72         24  H    CARTESIAN Z    -1.670280     -0.121310  KCAL/ANGSTROM
     73         25  H    CARTESIAN X     0.939669     -0.011219  KCAL/ANGSTROM
     74         25  H    CARTESIAN Y     2.610505     -0.560209  KCAL/ANGSTROM
     75         25  H    CARTESIAN Z     0.932794     -0.667051  KCAL/ANGSTROM
     76         26  H    CARTESIAN X     1.080628     -0.014171  KCAL/ANGSTROM
     77         26  H    CARTESIAN Y     4.766865     -0.540965  KCAL/ANGSTROM
     78         26  H    CARTESIAN Z    -0.290024      0.315611  KCAL/ANGSTROM
     79         27  H    CARTESIAN X     2.061011     -0.655352  KCAL/ANGSTROM
     80         27  H    CARTESIAN Y     3.558562      0.672687  KCAL/ANGSTROM
     81         27  H    CARTESIAN Z    -1.131074      0.350632  KCAL/ANGSTROM
     82         28  H    CARTESIAN X     0.492197      0.564003  KCAL/ANGSTROM
     83         28  H    CARTESIAN Y     4.032894      0.314025  KCAL/ANGSTROM
     84         28  H    CARTESIAN Z    -1.785528      0.421471  KCAL/ANGSTROM
     85         29  H    CARTESIAN X    -1.690123      0.041165  KCAL/ANGSTROM
     86         29  H    CARTESIAN Y     3.182429      0.656598  KCAL/ANGSTROM
     87         29  H    CARTESIAN Z    -0.638634      0.150776  KCAL/ANGSTROM
     88         30  H    CARTESIAN X    -1.158265      0.072723  KCAL/ANGSTROM
     89         30  H    CARTESIAN Y     4.060965     -0.243288  KCAL/ANGSTROM
     90         30  H    CARTESIAN Z     0.803221     -0.288758  KCAL/ANGSTROM
     91         31  H    CARTESIAN X    -1.588827      0.080839  KCAL/ANGSTROM
     92         31  H    CARTESIAN Y     2.343382      0.882600  KCAL/ANGSTROM
     93         31  H    CARTESIAN Z     0.891087     -0.170313  KCAL/ANGSTROM
     94         32  C    CARTESIAN X    -2.988132      0.407161  KCAL/ANGSTROM
     95         32  C    CARTESIAN Y    -1.071146     -0.021480  KCAL/ANGSTROM
     96         32  C    CARTESIAN Z     0.257071      0.097834  KCAL/ANGSTROM
     97         33  C    CARTESIAN X    -2.719917      0.032482  KCAL/ANGSTROM
     98         33  C    CARTESIAN Y    -2.590584     -0.051913  KCAL/ANGSTROM
     99         33  C    CARTESIAN Z     0.126269     -0.384688  KCAL/ANGSTROM
    100         34  C    CARTESIAN X    -2.193876     39.482168  KCAL/ANGSTROM
    101         34  C    CARTESIAN Y    -2.772579     -9.368664  KCAL/ANGSTROM
    102         34  C    CARTESIAN Z    -1.306583      2.190691  KCAL/ANGSTROM
    103         35  C    CARTESIAN X    -2.268900      0.408469  KCAL/ANGSTROM
    104         35  C    CARTESIAN Y    -1.576683     -0.111807  KCAL/ANGSTROM
    105         35  C    CARTESIAN Z    -1.989018      0.432014  KCAL/ANGSTROM
    106         36  C    CARTESIAN X    -2.573344     -0.090639  KCAL/ANGSTROM
    107         36  C    CARTESIAN Y    -0.484223     -0.498005  KCAL/ANGSTROM
    108         36  C    CARTESIAN Z    -1.096762      0.539517  KCAL/ANGSTROM
    109         37  O    CARTESIAN X    -2.531589     -0.396679  KCAL/ANGSTROM
    110         37  O    CARTESIAN Y     0.708548      0.381145  KCAL/ANGSTROM
    111         37  O    CARTESIAN Z    -1.310806     -0.306762  KCAL/ANGSTROM
    112         38  C    CARTESIAN X    -3.988903     -0.233544  KCAL/ANGSTROM
    113         38  C    CARTESIAN Y    -3.422325      0.086173  KCAL/ANGSTROM
    114         38  C    CARTESIAN Z     0.313371      0.082169  KCAL/ANGSTROM
    115         39  H    CARTESIAN X    -2.417837     -0.006323  KCAL/ANGSTROM
    116         39  H    CARTESIAN Y    -0.613174     -0.525211  KCAL/ANGSTROM
    117         39  H    CARTESIAN Z     1.075128      0.111361  KCAL/ANGSTROM
    118         40  H    CARTESIAN X    -4.048934     -0.544922  KCAL/ANGSTROM
    119         40  H    CARTESIAN Y    -0.845265      0.007695  KCAL/ANGSTROM
    120         40  H    CARTESIAN Z     0.450746      0.177154  KCAL/ANGSTROM
    121         41  H    CARTESIAN X    -1.966807     -0.804056  KCAL/ANGSTROM
    122         41  H    CARTESIAN Y    -2.904947      0.182905  KCAL/ANGSTROM
    123         41  H    CARTESIAN Z     0.877165     -0.021945  KCAL/ANGSTROM
    124         42  H    CARTESIAN X    -2.352801     -0.455581  KCAL/ANGSTROM
    125         42  H    CARTESIAN Y    -3.744536     -0.145620  KCAL/ANGSTROM
    126         42  H    CARTESIAN Z    -1.771850      0.220315  KCAL/ANGSTROM
    127         43  H    CARTESIAN X    -2.098905     -0.023900  KCAL/ANGSTROM
    128         43  H    CARTESIAN Y    -1.425364     -0.274478  KCAL/ANGSTROM
    129         43  H    CARTESIAN Z    -3.031299      0.870642  KCAL/ANGSTROM
    130         44  H    CARTESIAN X    -4.687490      1.064699  KCAL/ANGSTROM
    131         44  H    CARTESIAN Y    -3.272100     -0.319010  KCAL/ANGSTROM
    132         44  H    CARTESIAN Z    -0.517681      0.297699  KCAL/ANGSTROM
    133         45  H    CARTESIAN X    -4.513704     -0.422158  KCAL/ANGSTROM
    134         45  H    CARTESIAN Y    -3.149803      0.260449  KCAL/ANGSTROM
    135         45  H    CARTESIAN Z     1.235243     -0.295740  KCAL/ANGSTROM
    136         46  H    CARTESIAN X    -3.759984      0.218396  KCAL/ANGSTROM
    137         46  H    CARTESIAN Y    -4.492917     -0.453153  KCAL/ANGSTROM
    138         46  H    CARTESIAN Z     0.363933      0.074529  KCAL/ANGSTROM




   ATOM   CHEMICAL          X               Y               Z
  NUMBER   SYMBOL      (ANGSTROMS)     (ANGSTROMS)     (ANGSTROMS)
 
     1       C          0.65168460  *  -2.39474112  *   1.01654893  *
     2       C          0.24347311  *  -2.20124086  *  -0.41298372  *
     3       C          0.32142487  *  -0.89022242  *  -0.95412942  *
     4       C          0.51818368  *   0.23584451  *  -0.18789231  *
     5       C          0.94289270  *   0.12182318  *   1.24866209  *
     6       C          0.38858479  *  -1.15873251  *   1.88388725  *
     7       C         -0.25959702  *  -3.22955855  *  -1.18576439  *
     8       C         -0.25084757  *  -4.65530855  *  -0.71244506  *
     9       N          0.42203823  *   1.46740877  *  -0.78551183  *
    10       C          0.36658136  *   2.72920121  *  -0.02192051  *
    11       C          1.03621642  *   3.83092825  *  -0.85666000  *
    12       C         -1.08943921  *   3.10406310  *   0.28064943  *
    13       H          0.14501377  *  -3.27122944  *   1.46691971  *
    14       H          1.73398618  *  -2.64659604  *   1.02661289  *
    15       H          0.12310633  *  -0.78477039  *  -2.02196155  *
    16       H          0.61893124  *   0.99290178  *   1.85516708  *
    17       H          2.05522261  *   0.11965934  *   1.28139434  *
    18       H         -0.70156143  *  -1.04660470  *   2.04827944  *
    19       H          0.83535991  *  -1.30164040  *   2.88641148  *
    20       H         -0.17950341  *  -3.13715688  *  -2.27793257  *
    21       H          0.77769766  *  -5.02034934  *  -0.58572933  *
    22       H         -0.76885872  *  -4.78530258  *   0.24467073  *
    23       H         -0.73740186  *  -5.32473722  *  -1.43454727  *
    24       H         -0.09409410  *   1.50038221  *  -1.67028010  *
    25       H          0.93966910  *   2.61050500  *   0.93279413  *
    26       H          1.08062759  *   4.76686480  *  -0.29002416  *
    27       H          2.06101137  *   3.55856209  *  -1.13107411  *
    28       H          0.49219692  *   4.03289422  *  -1.78552791  *
    29       H         -1.69012296  *   3.18242891  *  -0.63863379  *
    30       H         -1.15826515  *   4.06096547  *   0.80322099  *
    31       H         -1.58882711  *   2.34338155  *   0.89108723  *
    32       C         -2.98813166  *  -1.07114620  *   0.25707090  *
    33       C         -2.71991700  *  -2.59058387  *   0.12626883  *
    34       C         -2.19387589  *  -2.77257864  *  -1.30658296  *
    35       C         -2.26889965  *  -1.57668262  *  -1.98901761  *
    36       C         -2.57334424  *  -0.48422298  *  -1.09676240  *
    37       O         -2.53158941  *   0.70854778  *  -1.31080570  *
    38       C         -3.98890339  *  -3.42232497  *   0.31337146  *
    39       H         -2.41783656  *  -0.61317356  *   1.07512784  *
    40       H         -4.04893389  *  -0.84526507  *   0.45074608  *
    41       H         -1.96680652  *  -2.90494687  *   0.87716456  *
    42       H         -2.35280099  *  -3.74453570  *  -1.77185036  *
    43       H         -2.09890536  *  -1.42536435  *  -3.03129851  *
    44       H         -4.68749023  *  -3.27210047  *  -0.51768120  *
    45       H         -4.51370427  *  -3.14980294  *   1.23524335  *
    46       H         -3.75998365  *  -4.49291663  *   0.36393278  *

                             CARTESIAN COORDINATES

   1    C        0.651684599    -2.394741118     1.016548932
   2    C        0.243473113    -2.201240857    -0.412983716
   3    C        0.321424871    -0.890222423    -0.954129416
   4    C        0.518183684     0.235844509    -0.187892310
   5    C        0.942892699     0.121823177     1.248662087
   6    C        0.388584791    -1.158732509     1.883887254
   7    C       -0.259597025    -3.229558546    -1.185764389
   8    C       -0.250847569    -4.655308554    -0.712445057
   9    N        0.422038225     1.467408768    -0.785511826
  10    C        0.366581357     2.729201207    -0.021920513
  11    C        1.036216416     3.830928249    -0.856659998
  12    C       -1.089439208     3.104063096     0.280649433
  13    H        0.145013774    -3.271229441     1.466919707
  14    H        1.733986182    -2.646596036     1.026612890
  15    H        0.123106329    -0.784770392    -2.021961546
  16    H        0.618931236     0.992901775     1.855167083
  17    H        2.055222607     0.119659336     1.281394336
  18    H       -0.701561432    -1.046604696     2.048279439
  19    H        0.835359912    -1.301640402     2.886411484
  20    H       -0.179503408    -3.137156881    -2.277932572
  21    H        0.777697665    -5.020349336    -0.585729326
  22    H       -0.768858720    -4.785302578     0.244670732
  23    H       -0.737401856    -5.324737215    -1.434547270
  24    H       -0.094094101     1.500382210    -1.670280105
  25    H        0.939669099     2.610505005     0.932794135
  26    H        1.080627591     4.766864797    -0.290024159
  27    H        2.061011368     3.558562093    -1.131074106
  28    H        0.492196916     4.032894219    -1.785527911
  29    H       -1.690122964     3.182428914    -0.638633793
  30    H       -1.158265154     4.060965472     0.803220989
  31    H       -1.588827113     2.343381553     0.891087234
  32    C       -2.988131662    -1.071146202     0.257070896
  33    C       -2.719916997    -2.590583867     0.126268829
  34    C       -2.193875895    -2.772578637    -1.306582960
  35    C       -2.268899652    -1.576682621    -1.989017606
  36    C       -2.573344243    -0.484222980    -1.096762404
  37    O       -2.531589408     0.708547781    -1.310805699
  38    C       -3.988903385    -3.422324968     0.313371463
  39    H       -2.417836557    -0.613173563     1.075127835
  40    H       -4.048933895    -0.845265068     0.450746085
  41    H       -1.966806517    -2.904946865     0.877164559
  42    H       -2.352800993    -3.744535701    -1.771850363
  43    H       -2.098905363    -1.425364353    -3.031298513
  44    H       -4.687490231    -3.272100473    -0.517681198
  45    H       -4.513704270    -3.149802940     1.235243349
  46    H       -3.759983649    -4.492916626     0.363932776


           Empirical Formula: C17 H27 N O  =    46 atoms



      MOLECULAR POINT GROUP   :   C1  


                  EIGENVALUES  
 -36.58398 -30.94515 -29.83825 -29.11047 -28.06715 -27.70641 -25.85423 -25.25426
 -25.07760 -24.04974 -23.77495 -22.44852 -21.55765 -21.33460 -20.04195 -19.31078
 -18.86978 -17.75447 -17.63407 -17.04812 -16.53105 -16.27866 -15.75081 -15.35743
 -15.28329 -15.08689 -14.75512 -14.45634 -14.13415 -14.02615 -13.92259 -13.75071
 -13.67918 -13.40579 -13.28054 -13.19861 -12.86908 -12.78465 -12.70334 -12.54304
 -12.42187 -12.30535 -11.98800 -11.85306 -11.79315 -11.68938 -11.44173 -11.28250
 -11.16199 -10.53774  -9.18831  -8.71186  -7.36066  -0.32591   1.30379   2.10497
   2.45830   2.88047   3.42754   3.60392   3.80001   3.89655   4.00968   4.02308
   4.06074   4.26544   4.54931   4.67904   4.82552   4.84609   5.14746   5.20080
   5.32049   5.35743   5.38545   5.51065   5.57201   5.63959   5.68990   5.73768
   5.81523   5.84201   5.85787   5.87608   5.88832   5.95558   5.99301   6.02277
   6.15943   6.21856   6.22327   6.33820   6.46168   6.67701   6.77844   6.78763
   6.84326   6.88756   6.99660   7.03218   7.10610   7.12471   7.50208


              NET ATOMIC CHARGES AND DIPOLE CONTRIBUTIONS

  ATOM NO.   TYPE          CHARGE      No. of ELECS.   s-Pop       p-Pop       
    1          C          -0.305106        4.3051     1.05765     3.24746
    2          C           0.165660        3.8343     1.08009     2.75424
    3          C          -0.456882        4.4569     1.05791     3.39897
    4          C           0.331519        3.6685     1.07983     2.58865
    5          C          -0.316322        4.3163     1.06062     3.25570
    6          C          -0.247191        4.2472     1.05779     3.18940
    7          C          -0.291927        4.2919     1.08381     3.20812
    8          C          -0.428118        4.4281     1.04749     3.38063
    9          N          -0.504993        5.5050     1.57042     3.93458
   10          C           0.120728        3.8793     1.06367     2.81560
   11          C          -0.468260        4.4683     1.05901     3.40926
   12          C          -0.489852        4.4899     1.06135     3.42850
   13          H           0.150809        0.8492     0.84919
   14          H           0.160016        0.8400     0.83998
   15          H           0.185451        0.8145     0.81455
   16          H           0.156141        0.8439     0.84386
   17          H           0.168695        0.8313     0.83130
   18          H           0.145183        0.8548     0.85482
   19          H           0.139286        0.8607     0.86071
   20          H           0.167225        0.8328     0.83278
   21          H           0.143377        0.8566     0.85662
   22          H           0.139490        0.8605     0.86051
   23          H           0.143100        0.8569     0.85690
   24          H           0.326551        0.6734     0.67345
   25          H           0.130549        0.8695     0.86945
   26          H           0.150253        0.8497     0.84975
   27          H           0.155931        0.8441     0.84407
   28          H           0.157600        0.8424     0.84240
   29          H           0.178154        0.8218     0.82185
   30          H           0.149336        0.8507     0.85066
   31          H           0.160942        0.8391     0.83906
   32          C          -0.406894        4.4069     1.08001     3.32688
   33          C          -0.108903        4.1089     1.06621     3.04269
   34          C           0.079729        3.9203     1.11544     2.80483
   35          C          -0.502754        4.5028     1.07494     3.42781
   36          C           0.541872        3.4581     1.10615     2.35198
   37          O          -0.581233        6.5812     1.87553     4.70571
   38          C          -0.450637        4.4506     1.05517     3.39547
   39          H           0.149787        0.8502     0.85021
   40          H           0.167557        0.8324     0.83244
   41          H           0.140931        0.8591     0.85907
   42          H           0.142851        0.8571     0.85715
   43          H           0.170212        0.8298     0.82979
   44          H           0.153862        0.8461     0.84614
   45          H           0.145798        0.8542     0.85420
   46          H           0.140478        0.8595     0.85952
 DIPOLE           X         Y         Z       TOTAL
 POINT-CHG.     2.598    -0.741     3.814     4.674
 HYBRID        -0.188     0.277     0.110     0.353
 SUM            2.410    -0.464     3.925     4.629


          ATOMIC ORBITAL ELECTRON POPULATIONS

     Atom    s        px        py        pz   
    1  C   1.05765   1.15540   1.06462   1.02744
    2  C   1.08009   0.84147   0.97092   0.94186
    3  C   1.05791   1.29960   0.98366   1.11571
    4  C   1.07983   0.81722   0.85207   0.91935
    5  C   1.06062   1.14726   1.08688   1.02156
    6  C   1.05779   1.14175   0.97454   1.07311
    7  C   1.08381   1.13874   0.97116   1.09822
    8  C   1.04749   1.16687   1.05470   1.15906
    9  N   1.57042   1.59392   1.09950   1.24116
   10  C   1.06367   0.99264   0.82661   0.99635
   11  C   1.05901   1.16104   1.10123   1.14699
   12  C   1.06135   1.05347   1.17070   1.20433
   13  H   0.84919
   14  H   0.83998
   15  H   0.81455
   16  H   0.84386
   17  H   0.83130
   18  H   0.85482
   19  H   0.86071
   20  H   0.83278
   21  H   0.85662
   22  H   0.86051
   23  H   0.85690
   24  H   0.67345
   25  H   0.86945
   26  H   0.84975
   27  H   0.84407
   28  H   0.84240
   29  H   0.82185
   30  H   0.85066
   31  H   0.83906
   32  C   1.08001   1.16907   1.03303   1.12479
   33  C   1.06621   1.02429   0.97640   1.04201
   34  C   1.11544   0.78106   1.04472   0.97905
   35  C   1.07494   1.30392   1.01870   1.10520
   36  C   1.10615   0.66720   0.82522   0.85955
   37  O   1.87553   1.55431   1.30234   1.84906
   38  C   1.05517   1.08799   1.12914   1.17834
   39  H   0.85021
   40  H   0.83244
   41  H   0.85907
   42  H   0.85715
   43  H   0.82979
   44  H   0.84614
   45  H   0.85420
   46  H   0.85952

 **********************
 *                    *
 * JOB ENDED NORMALLY *
 *                    *
 **********************



 TOTAL JOB TIME:             0.10 SECONDS

 == MOPAC DONE ==
