 *******************************************************************************
 ** Site#: 36969        For non-commercial use only    Version 21.051W 64BITS **
 *******************************************************************************
 ** Cite this program as: MOPAC2016, Version: 21.051W, James J. P. Stewart,   **
 ** Stewart Computational Chemistry, web: HTTP://OpenMOPAC.net. Days left: 298**
 *******************************************************************************
 **                                                                           **
 **                                MOPAC2016                                  **
 **                                                                           **
 *******************************************************************************

                              PM7 CALCULATION RESULTS

 *******************************************************************************
 *  CALCULATION DONE:                                Wed Apr 28 13:49:03 2021  *
 *  PM7        - The PM7 Hamiltonian to be used
 *  TS         - USE EF ROUTINE FOR TS SEARCH
 *  T=         - A TIME OF 172800.0 SECONDS REQUESTED
 *  DUMP=N     - RESTART FILE WRITTEN EVERY 7200.0 SECONDS REQUESTED
 *******************************************************************************
PM7 TS
 temp

   ATOM   CHEMICAL          X               Y               Z
  NUMBER   SYMBOL      (ANGSTROMS)     (ANGSTROMS)     (ANGSTROMS)
 
     1       C         -1.40703759  *  -1.26806036  *  -0.30719691  *
     2       H         -0.96190254  *  -1.20723920  *  -1.30714540  *
     3       C         -0.70083246  *  -1.85270884  *   0.74045499  *
     4       H         -1.24704843  *  -2.25169226  *   1.59673056  *
     5       C          0.69166223  *  -1.80881704  *   0.79538542  *
     6       H          1.19168642  *  -2.13040474  *   1.71047774  *
     7       C          1.42899602  *  -1.22206599  *  -0.21993749  *
     8       H          1.11036494  *  -1.26048444  *  -1.25654761  *
     9       H          2.49172942  *  -1.04044834  *  -0.11441288  *
    10       C         -2.89839969  *  -1.28987927  *  -0.29449624  *
    11       H         -3.34055767  *  -0.45111260  *  -0.85922841  *
    12       H         -3.27403191  *  -2.20931363  *  -0.77294482  *
    13       H         -3.32495461  *  -1.25851248  *   0.71602992  *
    14       O         -0.13036342  *   1.44181128  *  -2.08754951  *
    15       C         -1.24821114  *   1.23356604  *  -1.26994177  *
    16       C          1.04387761  *   1.21290393  *  -1.34579994  *
    17       C         -0.76094392  *   0.74609971  *   0.06211116  *
    18       O         -2.33857960  *   1.45449731  *  -1.69887973  *
    19       C          0.64404746  *   0.76357405  *   0.00756115  *
    20       O          2.10258151  *   1.39028297  *  -1.86354916  *
    21       H          1.29580192  *   0.91487659  *   0.85283022  *
    22       C         -1.54835554  *   1.05937363  *   1.27762677  *
    23       H         -1.36648203  *   2.09494604  *   1.61296871  *
    24       H         -2.63380798  *   0.97367798  *   1.11153077  *
    25       H         -1.29233725  *   0.40186470  *   2.12128255  *
 


          CARTESIAN COORDINATES 

    NO.       ATOM           X           Y           Z

     1         C         -1.4070     -1.2681     -0.3072
     2         H         -0.9619     -1.2072     -1.3071
     3         C         -0.7008     -1.8527      0.7405
     4         H         -1.2470     -2.2517      1.5967
     5         C          0.6917     -1.8088      0.7954
     6         H          1.1917     -2.1304      1.7105
     7         C          1.4290     -1.2221     -0.2199
     8         H          1.1104     -1.2605     -1.2565
     9         H          2.4917     -1.0404     -0.1144
    10         C         -2.8984     -1.2899     -0.2945
    11         H         -3.3406     -0.4511     -0.8592
    12         H         -3.2740     -2.2093     -0.7729
    13         H         -3.3250     -1.2585      0.7160
    14         O         -0.1304      1.4418     -2.0875
    15         C         -1.2482      1.2336     -1.2699
    16         C          1.0439      1.2129     -1.3458
    17         C         -0.7609      0.7461      0.0621
    18         O         -2.3386      1.4545     -1.6989
    19         C          0.6440      0.7636      0.0076
    20         O          2.1026      1.3903     -1.8635
    21         H          1.2958      0.9149      0.8528
    22         C         -1.5484      1.0594      1.2776
    23         H         -1.3665      2.0949      1.6130
    24         H         -2.6338      0.9737      1.1115
    25         H         -1.2923      0.4019      2.1213

 General Reference for PM7:
 "Optimization of Parameters for Semiempirical Methods VI: More Modifications to the 
 NDDO Approximations and Re-optimization of Parameters", J. J. P. Stewart, J. Mol. Mod., 1:32, 19 (2013)
 https://link.springer.com/article/10.1007/s00894-012-1667-x

           Empirical Formula: C10 H12 O3  =    25 atoms



      MOLECULAR POINT GROUP   :   C1  


      RHF CALCULATION, NO. OF DOUBLY OCCUPIED LEVELS = 35


          Transition state refinement using EF

          HESSIAN CALCULATED NUMERICALLY

 CYCLE:     1 TIME:   0.516 TIME LEFT:  2.00D  GRAD.:    20.400 HEAT: -59.40528
 CYCLE:     2 TIME:   0.008 TIME LEFT:  2.00D  GRAD.:     4.590 HEAT: -59.67822
 CYCLE:     3 TIME:   0.008 TIME LEFT:  2.00D  GRAD.:     3.244 HEAT: -59.82613
 CYCLE:     4 TIME:   0.008 TIME LEFT:  2.00D  GRAD.:     0.683 HEAT: -59.83099

     GRADIENT =  0.68319 IS LESS THAN CUTOFF =  1.00000



 -------------------------------------------------------------------------------
 PM7 TS
 temp



     GEOMETRY OPTIMISED USING EIGENVECTOR FOLLOWING (TS).     
     SCF FIELD WAS ACHIEVED                                   


                              PM7 CALCULATION
                                                       MOPAC2016 (Version: 21.051W)
                                                       Wed Apr 28 13:49:04 2021
                                                       No. of days remaining = 298




          FINAL HEAT OF FORMATION =        -59.83099 KCAL/MOL =    -250.33285 KJ/MOL


          TOTAL ENERGY            =      -2273.90405 EV
          ELECTRONIC ENERGY       =     -13094.71034 EV  POINT GROUP:     C1  
          CORE-CORE REPULSION     =      10820.80628 EV
          COSMO AREA              =        196.05 SQUARE ANGSTROMS
          COSMO VOLUME            =        218.56 CUBIC ANGSTROMS

          GRADIENT NORM           =          0.68319 = 0.13664 PER ATOM
          IONIZATION POTENTIAL    =          9.323132 EV
          HOMO LUMO ENERGIES (EV) =         -9.323 -1.328
          NO. OF FILLED LEVELS    =         35
          MOLECULAR WEIGHT        =        180.2030

          MOLECULAR DIMENSIONS (Angstroms)

            Atom       Atom       Distance
            O    20    H    13     6.63621
            O    18    H     6     6.00823
            H    12    H    23     4.76197


          SCF CALCULATIONS        =         80
 
          WALL-CLOCK TIME         =          0.559 SECONDS
          COMPUTATION TIME        =          2.203 SECONDS




   ATOM   CHEMICAL          X               Y               Z
  NUMBER   SYMBOL      (ANGSTROMS)     (ANGSTROMS)     (ANGSTROMS)
 
     1       C         -1.44527832  *  -1.32962382  *  -0.31346817  *
     2       H         -0.99264129  *  -1.19978940  *  -1.30115195  *
     3       C         -0.72777661  *  -1.86191231  *   0.73809045  *
     4       H         -1.25460371  *  -2.26470826  *   1.60437784  *
     5       C          0.67023886  *  -1.76811258  *   0.79391560  *
     6       H          1.17634444  *  -2.06862079  *   1.71292077  *
     7       C          1.38839896  *  -1.16061751  *  -0.21976456  *
     8       H          1.06821273  *  -1.22206806  *  -1.25704754  *
     9       H          2.45642304  *  -0.99303848  *  -0.12909470  *
    10       C         -2.93276139  *  -1.33401798  *  -0.30240565  *
    11       H         -3.35903731  *  -0.47922400  *  -0.85718489  *
    12       H         -3.32106691  *  -2.24156067  *  -0.79473631  *
    13       H         -3.36192660  *  -1.30983734  *   0.70748007  *
    14       O         -0.11124242  *   1.43183366  *  -2.09235712  *
    15       C         -1.22704441  *   1.23746358  *  -1.25732960  *
    16       C          1.06330721  *   1.21221700  *  -1.35993411  *
    17       C         -0.72541914  *   0.79776228  *   0.07389367  *
    18       O         -2.31843734  *   1.43875836  *  -1.69326476  *
    19       C          0.67089685  *   0.76700417  *   0.00895531  *
    20       O          2.12282388  *   1.38936199  *  -1.87537575  *
    21       H          1.33335870  *   0.93248365  *   0.84724100  *
    22       C         -1.52192737  *   1.05174928  *   1.29164077  *
    23       H         -1.36816795  *   2.08081518  *   1.65955702  *
    24       H         -2.60462745  *   0.94137453  *   1.11993630  *
    25       H         -1.24984322  *   0.37553666  *   2.11615888  *

                             CARTESIAN COORDINATES

   1    C       -1.445278316    -1.329623820    -0.313468166
   2    H       -0.992641292    -1.199789403    -1.301151946
   3    C       -0.727776608    -1.861912307     0.738090454
   4    H       -1.254603707    -2.264708264     1.604377839
   5    C        0.670238855    -1.768112582     0.793915601
   6    H        1.176344441    -2.068620791     1.712920774
   7    C        1.388398960    -1.160617507    -0.219764563
   8    H        1.068212730    -1.222068062    -1.257047541
   9    H        2.456423045    -0.993038475    -0.129094700
  10    C       -2.932761386    -1.334017983    -0.302405655
  11    H       -3.359037309    -0.479224005    -0.857184889
  12    H       -3.321066909    -2.241560668    -0.794736310
  13    H       -3.361926601    -1.309837341     0.707480069
  14    O       -0.111242423     1.431833658    -2.092357124
  15    C       -1.227044410     1.237463579    -1.257329598
  16    C        1.063307214     1.212217002    -1.359934111
  17    C       -0.725419137     0.797762282     0.073893674
  18    O       -2.318437340     1.438758356    -1.693264756
  19    C        0.670896851     0.767004168     0.008955309
  20    O        2.122823883     1.389361993    -1.875375753
  21    H        1.333358696     0.932483655     0.847240997
  22    C       -1.521927368     1.051749279     1.291640767
  23    H       -1.368167950     2.080815182     1.659557017
  24    H       -2.604627451     0.941374528     1.119936302
  25    H       -1.249843218     0.375536658     2.116158882


           Empirical Formula: C10 H12 O3  =    25 atoms



      MOLECULAR POINT GROUP   :   C1  


                  EIGENVALUES  
 -32.32842 -31.91800 -31.28861 -30.05936 -27.99961 -27.53092 -25.49727 -23.98571
 -23.07008 -21.60212 -20.89194 -19.81458 -18.54152 -17.39535 -16.78327 -16.69352
 -16.07416 -15.85973 -15.74253 -15.11967 -14.57076 -14.34994 -14.25209 -14.10262
 -14.00037 -13.80971 -13.50817 -13.01620 -12.71228 -12.54374 -11.97143 -11.31081
 -11.06871 -10.16340  -9.32313  -1.32763  -0.54071   0.78462   1.06811   1.21686
   1.59253   2.47128   2.60822   3.62172   3.68571   4.06112   4.27224   4.29070
   4.47223   4.73114   4.90377   4.98137   5.01215   5.12736   5.19858   5.20896
   5.32621   5.36466   5.43510   5.63288   5.70181   5.89952   6.29241   6.48005


              NET ATOMIC CHARGES AND DIPOLE CONTRIBUTIONS

  ATOM NO.   TYPE          CHARGE      No. of ELECS.   s-Pop       p-Pop       
    1          C          -0.019446        4.0194     1.10544     2.91400
    2          H           0.152921        0.8471     0.84708
    3          C          -0.204711        4.2047     1.08170     3.12301
    4          H           0.154752        0.8452     0.84525
    5          C          -0.126215        4.1262     1.08462     3.04159
    6          H           0.150204        0.8498     0.84980
    7          C          -0.254403        4.2544     1.10627     3.14814
    8          H           0.158195        0.8418     0.84181
    9          H           0.156529        0.8435     0.84347
   10          C          -0.477256        4.4773     1.05156     3.42570
   11          H           0.184655        0.8153     0.81534
   12          H           0.169245        0.8308     0.83075
   13          H           0.156146        0.8439     0.84385
   14          O          -0.454131        6.4541     1.88121     4.57292
   15          C           0.575488        3.4245     1.12753     2.29698
   16          C           0.580603        3.4194     1.12154     2.29786
   17          C          -0.116034        4.1160     1.08900     3.02703
   18          O          -0.399579        6.3996     1.87490     4.52467
   19          C          -0.254702        4.2547     1.10876     3.14594
   20          O          -0.386838        6.3868     1.87535     4.51148
   21          H           0.188372        0.8116     0.81163
   22          C          -0.427637        4.4276     1.04466     3.38298
   23          H           0.162888        0.8371     0.83711
   24          H           0.168496        0.8315     0.83150
   25          H           0.162459        0.8375     0.83754
 DIPOLE           X         Y         Z       TOTAL
 POINT-CHG.    -0.800    -3.140     5.277     6.192
 HYBRID        -0.090     0.252    -0.489     0.557
 SUM           -0.891    -2.889     4.788     5.662


          ATOMIC ORBITAL ELECTRON POPULATIONS

     Atom    s        px        py        pz   
    1  C   1.10544   0.98703   0.88104   1.04593
    2  H   0.84708
    3  C   1.08170   1.01101   1.03293   1.07906
    4  H   0.84525
    5  C   1.08462   1.00311   0.97452   1.06396
    6  H   0.84980
    7  C   1.10627   1.10775   0.95632   1.08407
    8  H   0.84181
    9  H   0.84347
   10  C   1.05156   1.03543   1.19649   1.19377
   11  H   0.81534
   12  H   0.83075
   13  H   0.84385
   14  O   1.88121   1.29440   1.78947   1.48905
   15  C   1.12753   0.77663   0.69483   0.82553
   16  C   1.12154   0.77302   0.69509   0.82975
   17  C   1.08900   0.98189   1.06205   0.98310
   18  O   1.87490   1.31206   1.48263   1.72999
   19  C   1.10876   1.03964   1.04571   1.06059
   20  O   1.87535   1.33400   1.48053   1.69695
   21  H   0.81163
   22  C   1.04466   1.14410   1.17554   1.06333
   23  H   0.83711
   24  H   0.83150
   25  H   0.83754

 **********************
 *                    *
 * JOB ENDED NORMALLY *
 *                    *
 **********************



 TOTAL JOB TIME:             0.56 SECONDS

 == MOPAC DONE ==
