 *******************************************************************************
 ** Site#: 36969        For non-commercial use only    Version 21.051W 64BITS **
 *******************************************************************************
 ** Cite this program as: MOPAC2016, Version: 21.051W, James J. P. Stewart,   **
 ** Stewart Computational Chemistry, web: HTTP://OpenMOPAC.net. Days left: 329**
 *******************************************************************************
 **                                                                           **
 **                                MOPAC2016                                  **
 **                                                                           **
 *******************************************************************************

                              PM7 CALCULATION RESULTS

 *******************************************************************************
 *  CALCULATION DONE:                                Sun Mar 28 15:01:59 2021  *
 *  PM7        - The PM7 Hamiltonian to be used
 *  1SCF       - DO 1 SCF AND THEN STOP 
 *  T=         - A TIME OF 172800.0 SECONDS REQUESTED
 *  DUMP=N     - RESTART FILE WRITTEN EVERY 7200.0 SECONDS REQUESTED
 *  RELSCF     - DEFAULT SCF CRITERION MULTIPLIED BY 0.0001
 *              (DEFAULT SCF CRITERION = 0.00010)
 *  GRADIENTS  - ALL GRADIENTS TO BE PRINTED
 *******************************************************************************
PM7 1SCF GRADIENTS RELSCF=0.0001
 Title: ASE calculation

   ATOM   CHEMICAL          X               Y               Z
  NUMBER   SYMBOL      (ANGSTROMS)     (ANGSTROMS)     (ANGSTROMS)
 
     1       C         -1.43789847  *  -0.03444500  *  -1.09630767  *
     2       H         -0.97699160  *   0.94913680  *  -1.23640342  *
     3       C         -0.79033875  *  -1.18633948  *  -1.53123659  *
     4       H         -1.37355628  *  -2.08533298  *  -1.73903674  *
     5       C          0.60014172  *  -1.27399217  *  -1.55802738  *
     6       H          1.05481765  *  -2.24555034  *  -1.77452309  *
     7       C          1.40260755  *  -0.21541884  *  -1.16193277  *
     8       H          1.13260738  *   0.81713947  *  -1.34382655  *
     9       H          2.46740549  *  -0.35508169  *  -1.02079969  *
    10       C         -2.91751325  *  -0.03224393  *  -0.92299196  *
    11       H         -3.32793973  *   0.97187197  *  -0.76746402  *
    12       H         -3.42906132  *  -0.46102346  *  -1.79847360  *
    13       H         -3.23826130  *  -0.64615221  *  -0.05983940  *
    14       O          0.09802593  *  -2.11124671  *   1.47163514  *
    15       C          1.23006696  *  -1.32001043  *   1.24504324  *
    16       C         -1.06108337  *  -1.32985482  *   1.31363430  *
    17       C          0.75640921  *   0.05265223  *   0.86814897  *
    18       O          2.31746950  *  -1.79082539  *   1.37039141  *
    19       C         -0.64551871  *   0.02716096  *   0.89843674  *
    20       O         -2.12626205  *  -1.82317283  *   1.52858270  *
    21       H         -1.27845033  *   0.87524465  *   1.09666037  *
    22       C          1.58148728  *   1.23170539  *   1.21711994  *
    23       H          1.89240549  *   1.18417743  *   2.27716931  *
    24       H          2.51345660  *   1.30599246  *   0.63871965  *
    25       H          1.03450451  *   2.17588432  *   1.08532282  *
 


          CARTESIAN COORDINATES 

    NO.       ATOM           X           Y           Z

     1         C         -1.4379     -0.0344     -1.0963
     2         H         -0.9770      0.9491     -1.2364
     3         C         -0.7903     -1.1863     -1.5312
     4         H         -1.3736     -2.0853     -1.7390
     5         C          0.6001     -1.2740     -1.5580
     6         H          1.0548     -2.2456     -1.7745
     7         C          1.4026     -0.2154     -1.1619
     8         H          1.1326      0.8171     -1.3438
     9         H          2.4674     -0.3551     -1.0208
    10         C         -2.9175     -0.0322     -0.9230
    11         H         -3.3279      0.9719     -0.7675
    12         H         -3.4291     -0.4610     -1.7985
    13         H         -3.2383     -0.6462     -0.0598
    14         O          0.0980     -2.1112      1.4716
    15         C          1.2301     -1.3200      1.2450
    16         C         -1.0611     -1.3299      1.3136
    17         C          0.7564      0.0527      0.8681
    18         O          2.3175     -1.7908      1.3704
    19         C         -0.6455      0.0272      0.8984
    20         O         -2.1263     -1.8232      1.5286
    21         H         -1.2785      0.8752      1.0967
    22         C          1.5815      1.2317      1.2171
    23         H          1.8924      1.1842      2.2772
    24         H          2.5135      1.3060      0.6387
    25         H          1.0345      2.1759      1.0853

 General Reference for PM7:
 "Optimization of Parameters for Semiempirical Methods VI: More Modifications to the 
 NDDO Approximations and Re-optimization of Parameters", J. J. P. Stewart, J. Mol. Mod., 1:32, 19 (2013)
 https://link.springer.com/article/10.1007/s00894-012-1667-x

           Empirical Formula: C10 H12 O3  =    25 atoms



      MOLECULAR POINT GROUP   :   C1  


      RHF CALCULATION, NO. OF DOUBLY OCCUPIED LEVELS = 35

  SCF CRITERION =    0.1000E-07

 -------------------------------------------------------------------------------
 PM7 1SCF GRADIENTS RELSCF=0.0001
 Title: ASE calculation



     1SCF WAS SPECIFIED, SO BFGS WAS NOT USED                 
     SCF FIELD WAS ACHIEVED                                   


                              PM7 CALCULATION
                                                       MOPAC2016 (Version: 21.051W)
                                                       Sun Mar 28 15:01:59 2021
                                                       No. of days remaining = 329




          FINAL HEAT OF FORMATION =        -60.25047 KCAL/MOL =    -252.08798 KJ/MOL


          TOTAL ENERGY            =      -2273.92667 EV
          ELECTRONIC ENERGY       =     -13177.05761 EV  POINT GROUP:     C1  
          CORE-CORE REPULSION     =      10903.13095 EV
          COSMO AREA              =        195.17 SQUARE ANGSTROMS
          COSMO VOLUME            =        218.02 CUBIC ANGSTROMS

          GRADIENT NORM           =         18.24520 = 3.64904 PER ATOM
          IONIZATION POTENTIAL    =          9.540737 EV
          HOMO LUMO ENERGIES (EV) =         -9.541 -1.128
          NO. OF FILLED LEVELS    =         35
          MOLECULAR WEIGHT        =        180.2030

          MOLECULAR DIMENSIONS (Angstroms)

            Atom       Atom       Distance
            H    23    H    12     6.90185
            H     6    H    11     5.14820
            O    20    H     8     4.74326


          SCF CALCULATIONS        =          1
 
          WALL-CLOCK TIME         =          0.055 SECONDS
          COMPUTATION TIME        =          0.141 SECONDS

          LARGEST ATOMIC GRADIENTS

          Atom     Label                     Cartesian Gradients           Cartesian Coordinates       |Gradient|
                                           X          Y          Z        X          Y          Z

             7       C                   3.688     -1.341    -11.569    1.40261   -0.21542   -1.16193     12.217
            17       C                  -4.102      1.401     10.509    0.75641    0.05265    0.86815     11.368
            19       C                   1.804      0.267      4.237   -0.64552    0.02716    0.89844      4.613
             1       C                  -1.366     -0.350     -3.965   -1.43790   -0.03445   -1.09631      4.208
             8       H                   1.026      0.417     -0.052    1.13261    0.81714   -1.34383      1.109
             5       C                   0.060     -0.923      0.606    0.60014   -1.27399   -1.55803      1.105
            16       C                  -0.004      1.037      0.234   -1.06108   -1.32985    1.31363      1.063
             6       H                  -0.761      0.396     -0.587    1.05482   -2.24555   -1.77452      1.039
             4       H                   0.774      0.645     -0.248   -1.37356   -2.08533   -1.73904      1.038
             9       H                  -0.680      0.032      0.783    2.46741   -0.35508   -1.02080      1.037



       FINAL  POINT  AND  DERIVATIVES

   PARAMETER     ATOM    TYPE            VALUE        GRADIENT
      1          1  C    CARTESIAN X    -1.437898     -1.365626  KCAL/ANGSTROM
      2          1  C    CARTESIAN Y    -0.034445     -0.350011  KCAL/ANGSTROM
      3          1  C    CARTESIAN Z    -1.096308     -3.964819  KCAL/ANGSTROM
      4          2  H    CARTESIAN X    -0.976992     -0.164780  KCAL/ANGSTROM
      5          2  H    CARTESIAN Y     0.949137      0.371402  KCAL/ANGSTROM
      6          2  H    CARTESIAN Z    -1.236403      0.085596  KCAL/ANGSTROM
      7          3  C    CARTESIAN X    -0.790339      0.151334  KCAL/ANGSTROM
      8          3  C    CARTESIAN Y    -1.186339     -0.635980  KCAL/ANGSTROM
      9          3  C    CARTESIAN Z    -1.531237      0.586602  KCAL/ANGSTROM
     10          4  H    CARTESIAN X    -1.373556      0.774463  KCAL/ANGSTROM
     11          4  H    CARTESIAN Y    -2.085333      0.644510  KCAL/ANGSTROM
     12          4  H    CARTESIAN Z    -1.739037     -0.248174  KCAL/ANGSTROM
     13          5  C    CARTESIAN X     0.600142      0.059800  KCAL/ANGSTROM
     14          5  C    CARTESIAN Y    -1.273992     -0.922787  KCAL/ANGSTROM
     15          5  C    CARTESIAN Z    -1.558027      0.605778  KCAL/ANGSTROM
     16          6  H    CARTESIAN X     1.054818     -0.760785  KCAL/ANGSTROM
     17          6  H    CARTESIAN Y    -2.245550      0.395506  KCAL/ANGSTROM
     18          6  H    CARTESIAN Z    -1.774523     -0.586765  KCAL/ANGSTROM
     19          7  C    CARTESIAN X     1.402608      3.688222  KCAL/ANGSTROM
     20          7  C    CARTESIAN Y    -0.215419     -1.341207  KCAL/ANGSTROM
     21          7  C    CARTESIAN Z    -1.161933    -11.569203  KCAL/ANGSTROM
     22          8  H    CARTESIAN X     1.132607      1.026178  KCAL/ANGSTROM
     23          8  H    CARTESIAN Y     0.817139      0.417479  KCAL/ANGSTROM
     24          8  H    CARTESIAN Z    -1.343827     -0.052355  KCAL/ANGSTROM
     25          9  H    CARTESIAN X     2.467405     -0.679593  KCAL/ANGSTROM
     26          9  H    CARTESIAN Y    -0.355082      0.031989  KCAL/ANGSTROM
     27          9  H    CARTESIAN Z    -1.020800      0.782503  KCAL/ANGSTROM
     28         10  C    CARTESIAN X    -2.917513      0.110045  KCAL/ANGSTROM
     29         10  C    CARTESIAN Y    -0.032244     -0.526088  KCAL/ANGSTROM
     30         10  C    CARTESIAN Z    -0.922992      0.335786  KCAL/ANGSTROM
     31         11  H    CARTESIAN X    -3.327940      0.320239  KCAL/ANGSTROM
     32         11  H    CARTESIAN Y     0.971872     -0.557405  KCAL/ANGSTROM
     33         11  H    CARTESIAN Z    -0.767464     -0.309607  KCAL/ANGSTROM
     34         12  H    CARTESIAN X    -3.429061      0.210831  KCAL/ANGSTROM
     35         12  H    CARTESIAN Y    -0.461023     -0.156725  KCAL/ANGSTROM
     36         12  H    CARTESIAN Z    -1.798474      0.390466  KCAL/ANGSTROM
     37         13  H    CARTESIAN X    -3.238261      0.564069  KCAL/ANGSTROM
     38         13  H    CARTESIAN Y    -0.646152      0.282286  KCAL/ANGSTROM
     39         13  H    CARTESIAN Z    -0.059839      0.602122  KCAL/ANGSTROM
     40         14  O    CARTESIAN X     0.098026     -0.207729  KCAL/ANGSTROM
     41         14  O    CARTESIAN Y    -2.111247      0.631524  KCAL/ANGSTROM
     42         14  O    CARTESIAN Z     1.471635     -0.605853  KCAL/ANGSTROM
     43         15  C    CARTESIAN X     1.230067     -0.025490  KCAL/ANGSTROM
     44         15  C    CARTESIAN Y    -1.320010      0.300056  KCAL/ANGSTROM
     45         15  C    CARTESIAN Z     1.245043      0.375474  KCAL/ANGSTROM
     46         16  C    CARTESIAN X    -1.061083     -0.004415  KCAL/ANGSTROM
     47         16  C    CARTESIAN Y    -1.329855      1.036738  KCAL/ANGSTROM
     48         16  C    CARTESIAN Z     1.313634      0.234363  KCAL/ANGSTROM
     49         17  C    CARTESIAN X     0.756409     -4.102332  KCAL/ANGSTROM
     50         17  C    CARTESIAN Y     0.052652      1.401031  KCAL/ANGSTROM
     51         17  C    CARTESIAN Z     0.868149     10.509219  KCAL/ANGSTROM
     52         18  O    CARTESIAN X     2.317469     -0.651387  KCAL/ANGSTROM
     53         18  O    CARTESIAN Y    -1.790825      0.350851  KCAL/ANGSTROM
     54         18  O    CARTESIAN Z     1.370391     -0.371186  KCAL/ANGSTROM
     55         19  C    CARTESIAN X    -0.645519      1.803598  KCAL/ANGSTROM
     56         19  C    CARTESIAN Y     0.027161      0.266711  KCAL/ANGSTROM
     57         19  C    CARTESIAN Z     0.898437      4.237195  KCAL/ANGSTROM
     58         20  O    CARTESIAN X    -2.126262      0.097888  KCAL/ANGSTROM
     59         20  O    CARTESIAN Y    -1.823173      0.472999  KCAL/ANGSTROM
     60         20  O    CARTESIAN Z     1.528583     -0.501298  KCAL/ANGSTROM
     61         21  H    CARTESIAN X    -1.278450      0.654446  KCAL/ANGSTROM
     62         21  H    CARTESIAN Y     0.875245     -0.517287  KCAL/ANGSTROM
     63         21  H    CARTESIAN Z     1.096660     -0.153335  KCAL/ANGSTROM
     64         22  C    CARTESIAN X     1.581487     -0.407469  KCAL/ANGSTROM
     65         22  C    CARTESIAN Y     1.231705     -0.379566  KCAL/ANGSTROM
     66         22  C    CARTESIAN Z     1.217120     -0.471058  KCAL/ANGSTROM
     67         23  H    CARTESIAN X     1.892405      0.124294  KCAL/ANGSTROM
     68         23  H    CARTESIAN Y     1.184177     -0.849639  KCAL/ANGSTROM
     69         23  H    CARTESIAN Z     2.277169     -0.367247  KCAL/ANGSTROM
     70         24  H    CARTESIAN X     2.513457     -0.753504  KCAL/ANGSTROM
     71         24  H    CARTESIAN Y     1.305992      0.022405  KCAL/ANGSTROM
     72         24  H    CARTESIAN Z     0.638720     -0.217793  KCAL/ANGSTROM
     73         25  H    CARTESIAN X     1.034505     -0.462302  KCAL/ANGSTROM
     74         25  H    CARTESIAN Y     2.175884     -0.388799  KCAL/ANGSTROM
     75         25  H    CARTESIAN Z     1.085323      0.673582  KCAL/ANGSTROM




   ATOM   CHEMICAL          X               Y               Z
  NUMBER   SYMBOL      (ANGSTROMS)     (ANGSTROMS)     (ANGSTROMS)
 
     1       C         -1.43789847  *  -0.03444500  *  -1.09630767  *
     2       H         -0.97699160  *   0.94913680  *  -1.23640342  *
     3       C         -0.79033875  *  -1.18633948  *  -1.53123659  *
     4       H         -1.37355628  *  -2.08533298  *  -1.73903674  *
     5       C          0.60014172  *  -1.27399217  *  -1.55802738  *
     6       H          1.05481765  *  -2.24555034  *  -1.77452309  *
     7       C          1.40260755  *  -0.21541884  *  -1.16193277  *
     8       H          1.13260738  *   0.81713947  *  -1.34382655  *
     9       H          2.46740549  *  -0.35508169  *  -1.02079969  *
    10       C         -2.91751325  *  -0.03224393  *  -0.92299196  *
    11       H         -3.32793973  *   0.97187197  *  -0.76746402  *
    12       H         -3.42906132  *  -0.46102346  *  -1.79847360  *
    13       H         -3.23826130  *  -0.64615221  *  -0.05983940  *
    14       O          0.09802593  *  -2.11124671  *   1.47163514  *
    15       C          1.23006696  *  -1.32001043  *   1.24504324  *
    16       C         -1.06108337  *  -1.32985482  *   1.31363430  *
    17       C          0.75640921  *   0.05265223  *   0.86814897  *
    18       O          2.31746950  *  -1.79082539  *   1.37039141  *
    19       C         -0.64551871  *   0.02716096  *   0.89843674  *
    20       O         -2.12626205  *  -1.82317283  *   1.52858270  *
    21       H         -1.27845033  *   0.87524465  *   1.09666037  *
    22       C          1.58148728  *   1.23170539  *   1.21711994  *
    23       H          1.89240549  *   1.18417743  *   2.27716931  *
    24       H          2.51345660  *   1.30599246  *   0.63871965  *
    25       H          1.03450451  *   2.17588432  *   1.08532282  *

                             CARTESIAN COORDINATES

   1    C       -1.437898471    -0.034445003    -1.096307673
   2    H       -0.976991602     0.949136803    -1.236403424
   3    C       -0.790338750    -1.186339483    -1.531236589
   4    H       -1.373556285    -2.085332976    -1.739036741
   5    C        0.600141715    -1.273992172    -1.558027378
   6    H        1.054817651    -2.245550341    -1.774523087
   7    C        1.402607551    -0.215418837    -1.161932766
   8    H        1.132607384     0.817139466    -1.343826549
   9    H        2.467405494    -0.355081691    -1.020799688
  10    C       -2.917513251    -0.032243925    -0.922991961
  11    H       -3.327939730     0.971871969    -0.767464018
  12    H       -3.429061319    -0.461023464    -1.798473596
  13    H       -3.238261304    -0.646152213    -0.059839403
  14    O        0.098025926    -2.111246706     1.471635143
  15    C        1.230066957    -1.320010433     1.245043244
  16    C       -1.061083373    -1.329854818     1.313634296
  17    C        0.756409208     0.052652233     0.868148971
  18    O        2.317469497    -1.790825386     1.370391405
  19    C       -0.645518706     0.027160960     0.898436738
  20    O       -2.126262053    -1.823172828     1.528582697
  21    H       -1.278450333     0.875244654     1.096660368
  22    C        1.581487281     1.231705385     1.217119943
  23    H        1.892405491     1.184177434     2.277169311
  24    H        2.513456595     1.305992460     0.638719648
  25    H        1.034504511     2.175884317     1.085322821


           Empirical Formula: C10 H12 O3  =    25 atoms



      MOLECULAR POINT GROUP   :   C1  


                  EIGENVALUES  
 -32.27291 -31.76469 -31.13824 -29.89691 -28.30042 -27.31306 -25.44707 -23.90079
 -22.93339 -21.73530 -20.82147 -19.66291 -18.62849 -17.15143 -16.83278 -16.65850
 -16.06133 -15.84473 -15.67985 -14.80578 -14.69100 -14.28530 -14.17601 -14.14523
 -13.99808 -13.73828 -13.70600 -12.99656 -12.65290 -12.44397 -11.84376 -11.19798
 -10.98247  -9.97997  -9.54074  -1.12751  -0.60076   0.67224   1.25001   1.33103
   1.72237   2.54510   2.67572   3.63803   3.72730   3.88189   4.25277   4.36037
   4.50636   4.84256   4.89303   4.95591   5.00655   5.03812   5.13128   5.23660
   5.35808   5.45148   5.51310   5.74145   5.81316   5.99329   6.18376   6.44623


              NET ATOMIC CHARGES AND DIPOLE CONTRIBUTIONS

  ATOM NO.   TYPE          CHARGE      No. of ELECS.   s-Pop       p-Pop       
    1          C           0.021960        3.9780     1.10817     2.86987
    2          H           0.148074        0.8519     0.85193
    3          C          -0.231589        4.2316     1.08346     3.14813
    4          H           0.170780        0.8292     0.82922
    5          C          -0.110610        4.1106     1.08740     3.02321
    6          H           0.163925        0.8361     0.83607
    7          C          -0.283284        4.2833     1.10867     3.17461
    8          H           0.153922        0.8461     0.84608
    9          H           0.157323        0.8427     0.84268
   10          C          -0.488014        4.4880     1.05224     3.43577
   11          H           0.154515        0.8455     0.84548
   12          H           0.170005        0.8300     0.82999
   13          H           0.194508        0.8055     0.80549
   14          O          -0.446002        6.4460     1.88061     4.56539
   15          C           0.572395        3.4276     1.12773     2.29988
   16          C           0.602645        3.3974     1.11711     2.28025
   17          C          -0.036771        4.0368     1.09567     2.94110
   18          O          -0.396971        6.3970     1.87473     4.52224
   19          C          -0.352581        4.3526     1.10263     3.24995
   20          O          -0.414301        6.4143     1.87491     4.53939
   21          H           0.188568        0.8114     0.81143
   22          C          -0.439974        4.4400     1.04614     3.39384
   23          H           0.173059        0.8269     0.82694
   24          H           0.168308        0.8317     0.83169
   25          H           0.160111        0.8399     0.83989
 DIPOLE           X         Y         Z       TOTAL
 POINT-CHG.    -0.473     5.570    -2.994     6.341
 HYBRID        -0.020    -0.459     0.287     0.541
 SUM           -0.493     5.111    -2.707     5.805


          ATOMIC ORBITAL ELECTRON POPULATIONS

     Atom    s        px        py        pz   
    1  C   1.10817   0.97722   1.05341   0.83924
    2  H   0.85193
    3  C   1.08346   1.02236   1.07804   1.04773
    4  H   0.82922
    5  C   1.08740   0.99849   1.07287   0.95185
    6  H   0.83607
    7  C   1.10867   1.10795   1.08570   0.98096
    8  H   0.84608
    9  H   0.84268
   10  C   1.05224   1.03442   1.19667   1.20468
   11  H   0.84548
   12  H   0.82999
   13  H   0.80549
   14  O   1.88061   1.29318   1.48567   1.78654
   15  C   1.12773   0.77794   0.83443   0.68751
   16  C   1.11711   0.76896   0.82499   0.68630
   17  C   1.09567   0.97879   0.98159   0.98072
   18  O   1.87473   1.31324   1.72487   1.48413
   19  C   1.10263   1.03926   1.06797   1.14272
   20  O   1.87491   1.33523   1.71762   1.48655
   21  H   0.81143
   22  C   1.04614   1.13612   1.07336   1.18435
   23  H   0.82694
   24  H   0.83169
   25  H   0.83989

 **********************
 *                    *
 * JOB ENDED NORMALLY *
 *                    *
 **********************



 TOTAL JOB TIME:             0.08 SECONDS

 == MOPAC DONE ==
