 *******************************************************************************
 ** Site#: 36969        For non-commercial use only    Version 21.051W 64BITS **
 *******************************************************************************
 ** Cite this program as: MOPAC2016, Version: 21.051W, James J. P. Stewart,   **
 ** Stewart Computational Chemistry, web: HTTP://OpenMOPAC.net. Days left: 328**
 *******************************************************************************
 **                                                                           **
 **                                MOPAC2016                                  **
 **                                                                           **
 *******************************************************************************

                              PM7 CALCULATION RESULTS

 *******************************************************************************
 *  CALCULATION DONE:                                Mon Mar 29 22:22:25 2021  *
 *  PM7        - The PM7 Hamiltonian to be used
 *  1SCF       - DO 1 SCF AND THEN STOP 
 *  T=         - A TIME OF 172800.0 SECONDS REQUESTED
 *  DUMP=N     - RESTART FILE WRITTEN EVERY 7200.0 SECONDS REQUESTED
 *  RELSCF     - DEFAULT SCF CRITERION MULTIPLIED BY 0.0001
 *              (DEFAULT SCF CRITERION = 0.00010)
 *  GRADIENTS  - ALL GRADIENTS TO BE PRINTED
 *******************************************************************************
PM7 1SCF GRADIENTS RELSCF=0.0001
 Title: ASE calculation

   ATOM   CHEMICAL          X               Y               Z
  NUMBER   SYMBOL      (ANGSTROMS)     (ANGSTROMS)     (ANGSTROMS)
 
     1       C          1.62869299  *   2.25421696  *  -1.45553200  *
     2       O          1.50027025  *   0.89439085  *  -1.09103197  *
     3       H          1.54254758  *   2.93865453  *  -0.61016703  *
     4       H          0.83733997  *   2.44410108  *  -2.19285679  *
     5       H          2.61358485  *   2.34935285  *  -1.92668436  *
     6       H          1.39071773  *   0.79784170  *  -0.05349626  *
     7       C         -2.94140108  *  -0.56655320  *  -0.35744759  *
     8       O         -4.23282987  *  -1.13859263  *  -0.43759937  *
     9       H         -2.75182962  *  -0.19907442  *   0.65652897  *
    10       H         -2.81582904  *   0.22853694  *  -1.09788600  *
    11       H         -2.27376594  *  -1.40778039  *  -0.58795548  *
    12       H         -4.91699359  *  -0.44566903  *  -0.36739623  *
    13       C          0.22167036  *   2.11216569  *   1.92768537  *
    14       O          0.83899347  *   0.85622490  *   1.73714476  *
    15       H         -0.50143894  *   1.93027356  *   2.73443478  *
    16       H         -0.29421194  *   2.47380888  *   1.03458670  *
    17       H          0.98096427  *   2.82848279  *   2.25819720  *
    18       H          1.21880437  *   0.78308622  *   0.76402693  *
 


          CARTESIAN COORDINATES 

    NO.       ATOM           X           Y           Z

     1         C          1.6287      2.2542     -1.4555
     2         O          1.5003      0.8944     -1.0910
     3         H          1.5425      2.9387     -0.6102
     4         H          0.8373      2.4441     -2.1929
     5         H          2.6136      2.3494     -1.9267
     6         H          1.3907      0.7978     -0.0535
     7         C         -2.9414     -0.5666     -0.3574
     8         O         -4.2328     -1.1386     -0.4376
     9         H         -2.7518     -0.1991      0.6565
    10         H         -2.8158      0.2285     -1.0979
    11         H         -2.2738     -1.4078     -0.5880
    12         H         -4.9170     -0.4457     -0.3674
    13         C          0.2217      2.1122      1.9277
    14         O          0.8390      0.8562      1.7371
    15         H         -0.5014      1.9303      2.7344
    16         H         -0.2942      2.4738      1.0346
    17         H          0.9810      2.8285      2.2582
    18         H          1.2188      0.7831      0.7640

 General Reference for PM7:
 "Optimization of Parameters for Semiempirical Methods VI: More Modifications to the 
 NDDO Approximations and Re-optimization of Parameters", J. J. P. Stewart, J. Mol. Mod., 1:32, 19 (2013)
 https://link.springer.com/article/10.1007/s00894-012-1667-x

           Empirical Formula: C3 H12 O3  =    18 atoms



      MOLECULAR POINT GROUP   :   C1  


      RHF CALCULATION, NO. OF DOUBLY OCCUPIED LEVELS = 21

  SCF CRITERION =    0.1000E-07

 -------------------------------------------------------------------------------
 PM7 1SCF GRADIENTS RELSCF=0.0001
 Title: ASE calculation



     1SCF WAS SPECIFIED, SO BFGS WAS NOT USED                 
     SCF FIELD WAS ACHIEVED                                   


                              PM7 CALCULATION
                                                       MOPAC2016 (Version: 21.051W)
                                                       Mon Mar 29 22:22:25 2021
                                                       No. of days remaining = 328




          FINAL HEAT OF FORMATION =       -121.58571 KCAL/MOL =    -508.71462 KJ/MOL


          TOTAL ENERGY            =      -1414.88330 EV
          ELECTRONIC ENERGY       =      -4993.18728 EV  POINT GROUP:     C1  
          CORE-CORE REPULSION     =       3578.30398 EV
          COSMO AREA              =        171.89 SQUARE ANGSTROMS
          COSMO VOLUME            =        155.58 CUBIC ANGSTROMS

          GRADIENT NORM           =        215.42528 = 50.77623 PER ATOM
          IONIZATION POTENTIAL    =         10.630024 EV
          HOMO LUMO ENERGIES (EV) =        -10.630  0.865
          NO. OF FILLED LEVELS    =         21
          MOLECULAR WEIGHT        =         96.1260

          MOLECULAR DIMENSIONS (Angstroms)

            Atom       Atom       Distance
            H    12    H     5     8.18249
            H    17    H    11     4.62915
            O    14    H     4     3.47794


          SCF CALCULATIONS        =          1
 
          WALL-CLOCK TIME         =          0.031 SECONDS
          COMPUTATION TIME        =          0.062 SECONDS

          LARGEST ATOMIC GRADIENTS

          Atom     Label                     Cartesian Gradients           Cartesian Coordinates       |Gradient|
                                           X          Y          Z        X          Y          Z

             6       H                 -31.073     -3.539    149.794    1.39072    0.79784   -0.05350    153.023
            18       H                  32.669      3.034   -147.999    1.21880    0.78309    0.76403    151.592
             5       H                  -1.340     -0.709      0.646    2.61358    2.34935   -1.92668      1.648
            16       H                   0.302      1.243     -0.408   -0.29421    2.47381    1.03459      1.343
            17       H                  -0.348     -1.099     -0.119    0.98096    2.82848    2.25820      1.159
             2       O                  -0.382      0.900     -0.568    1.50027    0.89439   -1.09103      1.130
            13       C                  -0.504     -0.433     -0.576    0.22167    2.11217    1.92769      0.879
             8       O                  -0.302     -0.652      0.345   -4.23283   -1.13859   -0.43760      0.797
             3       H                  -0.027     -0.103      0.773    1.54255    2.93865   -0.61017      0.781
             1       C                   0.297      0.432     -0.542    1.62869    2.25422   -1.45553      0.754



       FINAL  POINT  AND  DERIVATIVES

   PARAMETER     ATOM    TYPE            VALUE        GRADIENT
      1          1  C    CARTESIAN X     1.628693      0.296557  KCAL/ANGSTROM
      2          1  C    CARTESIAN Y     2.254217      0.431875  KCAL/ANGSTROM
      3          1  C    CARTESIAN Z    -1.455532     -0.542473  KCAL/ANGSTROM
      4          2  O    CARTESIAN X     1.500270     -0.381520  KCAL/ANGSTROM
      5          2  O    CARTESIAN Y     0.894391      0.899867  KCAL/ANGSTROM
      6          2  O    CARTESIAN Z    -1.091032     -0.567801  KCAL/ANGSTROM
      7          3  H    CARTESIAN X     1.542548     -0.026712  KCAL/ANGSTROM
      8          3  H    CARTESIAN Y     2.938655     -0.102528  KCAL/ANGSTROM
      9          3  H    CARTESIAN Z    -0.610167      0.773462  KCAL/ANGSTROM
     10          4  H    CARTESIAN X     0.837340      0.089123  KCAL/ANGSTROM
     11          4  H    CARTESIAN Y     2.444101     -0.106926  KCAL/ANGSTROM
     12          4  H    CARTESIAN Z    -2.192857     -0.207162  KCAL/ANGSTROM
     13          5  H    CARTESIAN X     2.613585     -1.340463  KCAL/ANGSTROM
     14          5  H    CARTESIAN Y     2.349353     -0.708920  KCAL/ANGSTROM
     15          5  H    CARTESIAN Z    -1.926684      0.646425  KCAL/ANGSTROM
     16          6  H    CARTESIAN X     1.390718    -31.072575  KCAL/ANGSTROM
     17          6  H    CARTESIAN Y     0.797842     -3.539162  KCAL/ANGSTROM
     18          6  H    CARTESIAN Z    -0.053496    149.793593  KCAL/ANGSTROM
     19          7  C    CARTESIAN X    -2.941401      0.015473  KCAL/ANGSTROM
     20          7  C    CARTESIAN Y    -0.566553      0.239624  KCAL/ANGSTROM
     21          7  C    CARTESIAN Z    -0.357448      0.160902  KCAL/ANGSTROM
     22          8  O    CARTESIAN X    -4.232830     -0.301605  KCAL/ANGSTROM
     23          8  O    CARTESIAN Y    -1.138593     -0.651509  KCAL/ANGSTROM
     24          8  O    CARTESIAN Z    -0.437599      0.345436  KCAL/ANGSTROM
     25          9  H    CARTESIAN X    -2.751830      0.495174  KCAL/ANGSTROM
     26          9  H    CARTESIAN Y    -0.199074      0.160485  KCAL/ANGSTROM
     27          9  H    CARTESIAN Z     0.656529      0.227121  KCAL/ANGSTROM
     28         10  H    CARTESIAN X    -2.815829      0.225284  KCAL/ANGSTROM
     29         10  H    CARTESIAN Y     0.228537      0.246058  KCAL/ANGSTROM
     30         10  H    CARTESIAN Z    -1.097886     -0.088801  KCAL/ANGSTROM
     31         11  H    CARTESIAN X    -2.273766     -0.504531  KCAL/ANGSTROM
     32         11  H    CARTESIAN Y    -1.407780      0.093496  KCAL/ANGSTROM
     33         11  H    CARTESIAN Z    -0.587955     -0.227164  KCAL/ANGSTROM
     34         12  H    CARTESIAN X    -4.916994     -0.332609  KCAL/ANGSTROM
     35         12  H    CARTESIAN Y    -0.445669     -0.137863  KCAL/ANGSTROM
     36         12  H    CARTESIAN Z    -0.367396     -0.508447  KCAL/ANGSTROM
     37         13  C    CARTESIAN X     0.221670     -0.503561  KCAL/ANGSTROM
     38         13  C    CARTESIAN Y     2.112166     -0.433124  KCAL/ANGSTROM
     39         13  C    CARTESIAN Z     1.927685     -0.575699  KCAL/ANGSTROM
     40         14  O    CARTESIAN X     0.838993      0.437990  KCAL/ANGSTROM
     41         14  O    CARTESIAN Y     0.856225      0.403389  KCAL/ANGSTROM
     42         14  O    CARTESIAN Z     1.737145     -0.099857  KCAL/ANGSTROM
     43         15  H    CARTESIAN X    -0.501439      0.280702  KCAL/ANGSTROM
     44         15  H    CARTESIAN Y     1.930274      0.027993  KCAL/ANGSTROM
     45         15  H    CARTESIAN Z     2.734435     -0.604408  KCAL/ANGSTROM
     46         16  H    CARTESIAN X    -0.294212      0.302356  KCAL/ANGSTROM
     47         16  H    CARTESIAN Y     2.473809      1.242672  KCAL/ANGSTROM
     48         16  H    CARTESIAN Z     1.034587     -0.408381  KCAL/ANGSTROM
     49         17  H    CARTESIAN X     0.980964     -0.347909  KCAL/ANGSTROM
     50         17  H    CARTESIAN Y     2.828483     -1.099036  KCAL/ANGSTROM
     51         17  H    CARTESIAN Z     2.258197     -0.118645  KCAL/ANGSTROM
     52         18  H    CARTESIAN X     1.218804     32.668955  KCAL/ANGSTROM
     53         18  H    CARTESIAN Y     0.783086      3.033752  KCAL/ANGSTROM
     54         18  H    CARTESIAN Z     0.764027   -147.998681  KCAL/ANGSTROM




   ATOM   CHEMICAL          X               Y               Z
  NUMBER   SYMBOL      (ANGSTROMS)     (ANGSTROMS)     (ANGSTROMS)
 
     1       C          1.62869299  *   2.25421696  *  -1.45553200  *
     2       O          1.50027025  *   0.89439085  *  -1.09103197  *
     3       H          1.54254758  *   2.93865453  *  -0.61016703  *
     4       H          0.83733997  *   2.44410108  *  -2.19285679  *
     5       H          2.61358485  *   2.34935285  *  -1.92668436  *
     6       H          1.39071773  *   0.79784170  *  -0.05349626  *
     7       C         -2.94140108  *  -0.56655320  *  -0.35744759  *
     8       O         -4.23282987  *  -1.13859263  *  -0.43759937  *
     9       H         -2.75182962  *  -0.19907442  *   0.65652897  *
    10       H         -2.81582904  *   0.22853694  *  -1.09788600  *
    11       H         -2.27376594  *  -1.40778039  *  -0.58795548  *
    12       H         -4.91699359  *  -0.44566903  *  -0.36739623  *
    13       C          0.22167036  *   2.11216569  *   1.92768537  *
    14       O          0.83899347  *   0.85622490  *   1.73714476  *
    15       H         -0.50143894  *   1.93027356  *   2.73443478  *
    16       H         -0.29421194  *   2.47380888  *   1.03458670  *
    17       H          0.98096427  *   2.82848279  *   2.25819720  *
    18       H          1.21880437  *   0.78308622  *   0.76402693  *

                             CARTESIAN COORDINATES

   1    C        1.628692986     2.254216957    -1.455531999
   2    O        1.500270253     0.894390852    -1.091031967
   3    H        1.542547576     2.938654526    -0.610167030
   4    H        0.837339971     2.444101077    -2.192856789
   5    H        2.613584847     2.349352854    -1.926684364
   6    H        1.390717726     0.797841702    -0.053496258
   7    C       -2.941401080    -0.566553202    -0.357447589
   8    O       -4.232829868    -1.138592632    -0.437599375
   9    H       -2.751829623    -0.199074418     0.656528967
  10    H       -2.815829039     0.228536935    -1.097885996
  11    H       -2.273765944    -1.407780394    -0.587955476
  12    H       -4.916993589    -0.445669029    -0.367396226
  13    C        0.221670357     2.112165694     1.927685372
  14    O        0.838993466     0.856224901     1.737144755
  15    H       -0.501438941     1.930273559     2.734434778
  16    H       -0.294211936     2.473808878     1.034586697
  17    H        0.980964265     2.828482793     2.258197205
  18    H        1.218804368     0.783086223     0.764026930


           Empirical Formula: C3 H12 O3  =    18 atoms



      MOLECULAR POINT GROUP   :   C1  


                  EIGENVALUES  
 -30.75043 -29.26504 -28.76946 -24.78622 -24.03045 -23.95801 -19.86353 -17.30938
 -16.18980 -15.56097 -15.43997 -15.14536 -15.07136 -15.01825 -14.57401 -13.60528
 -12.25777 -11.84427 -11.05235 -10.97133 -10.63002   0.86490   2.86916   2.96546
   3.82109   4.99963   5.02663   5.13731   5.20392   5.40551   5.58480   5.77408
   5.80461   5.94367   6.41618   6.90877


              NET ATOMIC CHARGES AND DIPOLE CONTRIBUTIONS

  ATOM NO.   TYPE          CHARGE      No. of ELECS.   s-Pop       p-Pop       
    1          C          -0.179857        4.1799     1.07824     3.10162
    2          O          -0.497652        6.4977     1.88063     4.61702
    3          H           0.113615        0.8864     0.88638
    4          H           0.139430        0.8606     0.86057
    5          H           0.139063        0.8609     0.86094
    6          H           0.283289        0.7167     0.71671
    7          C          -0.158878        4.1589     1.07844     3.08044
    8          O          -0.524806        6.5248     1.85089     4.67392
    9          H           0.118328        0.8817     0.88167
   10          H           0.112487        0.8875     0.88751
   11          H           0.150574        0.8494     0.84943
   12          H           0.302294        0.6977     0.69771
   13          C          -0.183594        4.1836     1.07834     3.10526
   14          O          -0.488500        6.4885     1.88161     4.60689
   15          H           0.151800        0.8482     0.84820
   16          H           0.117349        0.8827     0.88265
   17          H           0.124457        0.8755     0.87554
   18          H           0.280601        0.7194     0.71940
 DIPOLE           X         Y         Z       TOTAL
 POINT-CHG.     0.626     5.134     0.082     5.173
 HYBRID        -0.238    -0.184     0.055     0.306
 SUM            0.389     4.950     0.136     4.967


          ATOMIC ORBITAL ELECTRON POPULATIONS

     Atom    s        px        py        pz   
    1  C   1.07824   1.15387   0.83947   1.10828
    2  O   1.88063   1.97899   1.29915   1.33888
    3  H   0.88638
    4  H   0.86057
    5  H   0.86094
    6  H   0.71671
    7  C   1.07844   0.85108   1.10518   1.12418
    8  O   1.85089   1.26173   1.43247   1.97972
    9  H   0.88167
   10  H   0.88751
   11  H   0.84943
   12  H   0.69771
   13  C   1.07834   1.07898   0.89223   1.13404
   14  O   1.88161   1.80785   1.39541   1.40363
   15  H   0.84820
   16  H   0.88265
   17  H   0.87554
   18  H   0.71940

 **********************
 *                    *
 * JOB ENDED NORMALLY *
 *                    *
 **********************



 TOTAL JOB TIME:             0.04 SECONDS

 == MOPAC DONE ==
