 *******************************************************************************
 ** Site#: 36969        For non-commercial use only    Version 21.051W 64BITS **
 *******************************************************************************
 ** Cite this program as: MOPAC2016, Version: 21.051W, James J. P. Stewart,   **
 ** Stewart Computational Chemistry, web: HTTP://OpenMOPAC.net. Days left: 320**
 *******************************************************************************
 **                                                                           **
 **                                MOPAC2016                                  **
 **                                                                           **
 *******************************************************************************

                              PM7 CALCULATION RESULTS

 *******************************************************************************
 *  CALCULATION DONE:                                Tue Apr  6 16:02:57 2021  *
 *  PM7        - The PM7 Hamiltonian to be used
 *  1SCF       - DO 1 SCF AND THEN STOP 
 *  T=         - A TIME OF 172800.0 SECONDS REQUESTED
 *  DUMP=N     - RESTART FILE WRITTEN EVERY 7200.0 SECONDS REQUESTED
 *  RELSCF     - DEFAULT SCF CRITERION MULTIPLIED BY 0.0001
 *              (DEFAULT SCF CRITERION = 0.00010)
 *  GRADIENTS  - ALL GRADIENTS TO BE PRINTED
 *******************************************************************************
PM7 1SCF GRADIENTS RELSCF=0.0001
 Title: ASE calculation

   ATOM   CHEMICAL          X               Y               Z
  NUMBER   SYMBOL      (ANGSTROMS)     (ANGSTROMS)     (ANGSTROMS)
 
     1       C         -0.43302193  *  -1.39987414  *  -0.58967001  *
     2       H         -0.88467605  *  -2.30596986  *  -0.99732260  *
     3       C         -1.36967266  *  -0.55653571  *   0.20221759  *
     4       H         -2.23029127  *  -1.15116304  *   0.56488490  *
     5       H         -0.87880840  *  -0.13837785  *   1.10353996  *
     6       C          0.86033457  *  -1.14475529  *  -0.81548654  *
     7       H          1.45350880  *  -1.86209402  *  -1.39160526  *
     8       C          1.62658571  *   0.06217195  *  -0.39442559  *
     9       H          1.23557391  *   0.97374473  *  -0.88676570  *
    10       H          2.69450721  *  -0.01654236  *  -0.67831757  *
    11       O         -0.82764247  *   2.95524805  *  -0.33850367  *
    12       C         -1.22789784  *   1.90620389  *  -0.70046240  *
    13       C          1.38210192  *   1.42295527  *   1.70427345  *
    14       C         -1.93397787  *   0.63586987  *  -0.67961798  *
    15       O         -1.05722374  *   1.08512498  *  -1.77970023  *
    16       C          1.59315604  *   0.24193693  *   1.18179535  *
    17       O          1.18817448  *   2.46561222  *   2.17702283  *
    18       H         -2.98068018  *   0.53475760  *  -0.95797080  *
    19       H          1.79429398  *  -0.65572046  *   1.73498761  *
 


          CARTESIAN COORDINATES 

    NO.       ATOM           X           Y           Z

     1         C         -0.4330     -1.3999     -0.5897
     2         H         -0.8847     -2.3060     -0.9973
     3         C         -1.3697     -0.5565      0.2022
     4         H         -2.2303     -1.1512      0.5649
     5         H         -0.8788     -0.1384      1.1035
     6         C          0.8603     -1.1448     -0.8155
     7         H          1.4535     -1.8621     -1.3916
     8         C          1.6266      0.0622     -0.3944
     9         H          1.2356      0.9737     -0.8868
    10         H          2.6945     -0.0165     -0.6783
    11         O         -0.8276      2.9552     -0.3385
    12         C         -1.2279      1.9062     -0.7005
    13         C          1.3821      1.4230      1.7043
    14         C         -1.9340      0.6359     -0.6796
    15         O         -1.0572      1.0851     -1.7797
    16         C          1.5932      0.2419      1.1818
    17         O          1.1882      2.4656      2.1770
    18         H         -2.9807      0.5348     -0.9580
    19         H          1.7943     -0.6557      1.7350

 General Reference for PM7:
 "Optimization of Parameters for Semiempirical Methods VI: More Modifications to the 
 NDDO Approximations and Re-optimization of Parameters", J. J. P. Stewart, J. Mol. Mod., 1:32, 19 (2013)
 https://link.springer.com/article/10.1007/s00894-012-1667-x

           Empirical Formula: C8 H8 O3  =    19 atoms



      MOLECULAR POINT GROUP   :   C1  


      RHF CALCULATION, NO. OF DOUBLY OCCUPIED LEVELS = 29

  SCF CRITERION =    0.1000E-07

 -------------------------------------------------------------------------------
 PM7 1SCF GRADIENTS RELSCF=0.0001
 Title: ASE calculation



     1SCF WAS SPECIFIED, SO BFGS WAS NOT USED                 
     SCF FIELD WAS ACHIEVED                                   


                              PM7 CALCULATION
                                                       MOPAC2016 (Version: 21.051W)
                                                       Tue Apr  6 16:02:57 2021
                                                       No. of days remaining = 320




          FINAL HEAT OF FORMATION =        -37.72352 KCAL/MOL =    -157.83521 KJ/MOL


          TOTAL ENERGY            =      -1973.50024 EV
          ELECTRONIC ENERGY       =      -9452.53296 EV  POINT GROUP:     C1  
          CORE-CORE REPULSION     =       7479.03273 EV
          COSMO AREA              =        175.97 SQUARE ANGSTROMS
          COSMO VOLUME            =        185.77 CUBIC ANGSTROMS

          GRADIENT NORM           =         95.87423 = 21.99506 PER ATOM
          IONIZATION POTENTIAL    =          9.419264 EV
          HOMO LUMO ENERGIES (EV) =         -9.419  0.086
          NO. OF FILLED LEVELS    =         29
          MOLECULAR WEIGHT        =        152.1494

          MOLECULAR DIMENSIONS (Angstroms)

            Atom       Atom       Distance
            O    17    H     2     6.09436
            H    18    H    10     5.46682
            O    15    H    19     3.62430


          SCF CALCULATIONS        =          1
 
          WALL-CLOCK TIME         =          0.027 SECONDS
          COMPUTATION TIME        =          0.062 SECONDS

          LARGEST ATOMIC GRADIENTS

          Atom     Label                     Cartesian Gradients           Cartesian Coordinates       |Gradient|
                                           X          Y          Z        X          Y          Z

             8       C                   0.986     -5.965    -52.319    1.62659    0.06217   -0.39443     52.667
            16       C                  -1.466      5.974     52.068    1.59316    0.24194    1.18180     52.431
             3       C                  15.240    -32.410     23.743   -1.36967   -0.55654    0.20222     42.969
            14       C                 -14.551     32.690    -23.118   -1.93398    0.63587   -0.67962     42.601
             4       H                  -0.596     -0.889     -0.302   -2.23029   -1.15116    0.56488      1.113
             9       H                   0.179      1.010     -0.428    1.23557    0.97374   -0.88677      1.111
            12       C                   0.019      0.194      0.822   -1.22790    1.90620   -0.70046      0.845
            17       O                  -0.291     -0.394     -0.673    1.18817    2.46561    2.17702      0.833
            13       C                  -0.415      0.281     -0.634    1.38210    1.42296    1.70427      0.808
            19       H                   0.305      0.566     -0.475    1.79429   -0.65572    1.73499      0.800



       FINAL  POINT  AND  DERIVATIVES

   PARAMETER     ATOM    TYPE            VALUE        GRADIENT
      1          1  C    CARTESIAN X    -0.433022     -0.125982  KCAL/ANGSTROM
      2          1  C    CARTESIAN Y    -1.399874     -0.351984  KCAL/ANGSTROM
      3          1  C    CARTESIAN Z    -0.589670      0.087537  KCAL/ANGSTROM
      4          2  H    CARTESIAN X    -0.884676      0.491688  KCAL/ANGSTROM
      5          2  H    CARTESIAN Y    -2.305970      0.297164  KCAL/ANGSTROM
      6          2  H    CARTESIAN Z    -0.997323     -0.175006  KCAL/ANGSTROM
      7          3  C    CARTESIAN X    -1.369673     15.239742  KCAL/ANGSTROM
      8          3  C    CARTESIAN Y    -0.556536    -32.409620  KCAL/ANGSTROM
      9          3  C    CARTESIAN Z     0.202218     23.742716  KCAL/ANGSTROM
     10          4  H    CARTESIAN X    -2.230291     -0.596476  KCAL/ANGSTROM
     11          4  H    CARTESIAN Y    -1.151163     -0.889454  KCAL/ANGSTROM
     12          4  H    CARTESIAN Z     0.564885     -0.302057  KCAL/ANGSTROM
     13          5  H    CARTESIAN X    -0.878808     -0.486277  KCAL/ANGSTROM
     14          5  H    CARTESIAN Y    -0.138378     -0.141278  KCAL/ANGSTROM
     15          5  H    CARTESIAN Z     1.103540      0.567406  KCAL/ANGSTROM
     16          6  C    CARTESIAN X     0.860335     -0.006266  KCAL/ANGSTROM
     17          6  C    CARTESIAN Y    -1.144755     -0.443638  KCAL/ANGSTROM
     18          6  C    CARTESIAN Z    -0.815487      0.514484  KCAL/ANGSTROM
     19          7  H    CARTESIAN X     1.453509     -0.053218  KCAL/ANGSTROM
     20          7  H    CARTESIAN Y    -1.862094     -0.520608  KCAL/ANGSTROM
     21          7  H    CARTESIAN Z    -1.391605      0.205472  KCAL/ANGSTROM
     22          8  C    CARTESIAN X     1.626586      0.985827  KCAL/ANGSTROM
     23          8  C    CARTESIAN Y     0.062172     -5.965029  KCAL/ANGSTROM
     24          8  C    CARTESIAN Z    -0.394426    -52.318968  KCAL/ANGSTROM
     25          9  H    CARTESIAN X     1.235574      0.179226  KCAL/ANGSTROM
     26          9  H    CARTESIAN Y     0.973745      1.009898  KCAL/ANGSTROM
     27          9  H    CARTESIAN Z    -0.886766     -0.427651  KCAL/ANGSTROM
     28         10  H    CARTESIAN X     2.694507      0.240700  KCAL/ANGSTROM
     29         10  H    CARTESIAN Y    -0.016542     -0.248500  KCAL/ANGSTROM
     30         10  H    CARTESIAN Z    -0.678318      0.314872  KCAL/ANGSTROM
     31         11  O    CARTESIAN X    -0.827642      0.537024  KCAL/ANGSTROM
     32         11  O    CARTESIAN Y     2.955248     -0.123056  KCAL/ANGSTROM
     33         11  O    CARTESIAN Z    -0.338504      0.258983  KCAL/ANGSTROM
     34         12  C    CARTESIAN X    -1.227898      0.019328  KCAL/ANGSTROM
     35         12  C    CARTESIAN Y     1.906204      0.194141  KCAL/ANGSTROM
     36         12  C    CARTESIAN Z    -0.700462      0.821798  KCAL/ANGSTROM
     37         13  C    CARTESIAN X     1.382102     -0.415137  KCAL/ANGSTROM
     38         13  C    CARTESIAN Y     1.422955      0.281054  KCAL/ANGSTROM
     39         13  C    CARTESIAN Z     1.704273     -0.634303  KCAL/ANGSTROM
     40         14  C    CARTESIAN X    -1.933978    -14.550970  KCAL/ANGSTROM
     41         14  C    CARTESIAN Y     0.635870     32.690447  KCAL/ANGSTROM
     42         14  C    CARTESIAN Z    -0.679618    -23.118051  KCAL/ANGSTROM
     43         15  O    CARTESIAN X    -1.057224      0.036557  KCAL/ANGSTROM
     44         15  O    CARTESIAN Y     1.085125      0.157397  KCAL/ANGSTROM
     45         15  O    CARTESIAN Z    -1.779700     -0.349225  KCAL/ANGSTROM
     46         16  C    CARTESIAN X     1.593156     -1.466077  KCAL/ANGSTROM
     47         16  C    CARTESIAN Y     0.241937      5.973778  KCAL/ANGSTROM
     48         16  C    CARTESIAN Z     1.181795     52.068481  KCAL/ANGSTROM
     49         17  O    CARTESIAN X     1.188174     -0.291074  KCAL/ANGSTROM
     50         17  O    CARTESIAN Y     2.465612     -0.393716  KCAL/ANGSTROM
     51         17  O    CARTESIAN Z     2.177023     -0.673291  KCAL/ANGSTROM
     52         18  H    CARTESIAN X    -2.980680     -0.043951  KCAL/ANGSTROM
     53         18  H    CARTESIAN Y     0.534758      0.316689  KCAL/ANGSTROM
     54         18  H    CARTESIAN Z    -0.957971     -0.108506  KCAL/ANGSTROM
     55         19  H    CARTESIAN X     1.794294      0.305336  KCAL/ANGSTROM
     56         19  H    CARTESIAN Y    -0.655720      0.566311  KCAL/ANGSTROM
     57         19  H    CARTESIAN Z     1.734988     -0.474694  KCAL/ANGSTROM




   ATOM   CHEMICAL          X               Y               Z
  NUMBER   SYMBOL      (ANGSTROMS)     (ANGSTROMS)     (ANGSTROMS)
 
     1       C         -0.43302193  *  -1.39987414  *  -0.58967001  *
     2       H         -0.88467605  *  -2.30596986  *  -0.99732260  *
     3       C         -1.36967266  *  -0.55653571  *   0.20221759  *
     4       H         -2.23029127  *  -1.15116304  *   0.56488490  *
     5       H         -0.87880840  *  -0.13837785  *   1.10353996  *
     6       C          0.86033457  *  -1.14475529  *  -0.81548654  *
     7       H          1.45350880  *  -1.86209402  *  -1.39160526  *
     8       C          1.62658571  *   0.06217195  *  -0.39442559  *
     9       H          1.23557391  *   0.97374473  *  -0.88676570  *
    10       H          2.69450721  *  -0.01654236  *  -0.67831757  *
    11       O         -0.82764247  *   2.95524805  *  -0.33850367  *
    12       C         -1.22789784  *   1.90620389  *  -0.70046240  *
    13       C          1.38210192  *   1.42295527  *   1.70427345  *
    14       C         -1.93397787  *   0.63586987  *  -0.67961798  *
    15       O         -1.05722374  *   1.08512498  *  -1.77970023  *
    16       C          1.59315604  *   0.24193693  *   1.18179535  *
    17       O          1.18817448  *   2.46561222  *   2.17702283  *
    18       H         -2.98068018  *   0.53475760  *  -0.95797080  *
    19       H          1.79429398  *  -0.65572046  *   1.73498761  *

                             CARTESIAN COORDINATES

   1    C       -0.433021932    -1.399874136    -0.589670009
   2    H       -0.884676049    -2.305969855    -0.997322602
   3    C       -1.369672657    -0.556535713     0.202217588
   4    H       -2.230291269    -1.151163037     0.564884903
   5    H       -0.878808397    -0.138377847     1.103539959
   6    C        0.860334567    -1.144755288    -0.815486544
   7    H        1.453508800    -1.862094020    -1.391605265
   8    C        1.626585714     0.062171947    -0.394425585
   9    H        1.235573913     0.973744728    -0.886765701
  10    H        2.694507213    -0.016542360    -0.678317571
  11    O       -0.827642469     2.955248045    -0.338503671
  12    C       -1.227897837     1.906203889    -0.700462396
  13    C        1.382101917     1.422955265     1.704273446
  14    C       -1.933977868     0.635869873    -0.679617983
  15    O       -1.057223739     1.085124980    -1.779700232
  16    C        1.593156041     0.241936932     1.181795349
  17    O        1.188174476     2.465612216     2.177022835
  18    H       -2.980680178     0.534757596    -0.957970798
  19    H        1.794293981    -0.655720460     1.734987609


           Empirical Formula: C8 H8 O3  =    19 atoms



      MOLECULAR POINT GROUP   :   C1  


                  EIGENVALUES  
 -33.04190 -32.92372 -32.20412 -29.10194 -27.25282 -25.83460 -23.88469 -22.36941
 -20.14429 -18.79296 -18.41834 -17.73699 -16.64228 -16.35494 -16.21331 -15.98315
 -15.63120 -15.45260 -14.83565 -14.11610 -13.80870 -13.53183 -13.18196 -12.68421
 -12.02976 -11.69841 -10.78249 -10.11694  -9.41926   0.08552   0.32221   0.72038
   0.95677   1.01620   2.18487   2.64654   2.95315   3.05523   3.66150   4.05075
   4.40181   4.45277   4.74901   5.02768   5.23115   5.37983   5.76326   5.84413
   5.88659   6.07839   6.22766   6.28639


              NET ATOMIC CHARGES AND DIPOLE CONTRIBUTIONS

  ATOM NO.   TYPE          CHARGE      No. of ELECS.   s-Pop       p-Pop       
    1          C          -0.165101        4.1651     1.08134     3.08376
    2          H           0.144377        0.8556     0.85562
    3          C          -0.269962        4.2700     1.06467     3.20529
    4          H           0.151082        0.8489     0.84892
    5          H           0.167961        0.8320     0.83204
    6          C          -0.128263        4.1283     1.09052     3.03775
    7          H           0.144021        0.8560     0.85598
    8          C          -0.186640        4.1866     1.05558     3.13106
    9          H           0.155358        0.8446     0.84464
   10          H           0.148300        0.8517     0.85170
   11          O          -0.347483        6.3475     1.87391     4.47357
   12          C           0.513838        3.4862     1.09623     2.38993
   13          C           0.466114        3.5339     1.13801     2.39588
   14          C          -0.044523        4.0445     1.11569     2.92884
   15          O          -0.360225        6.3602     1.91992     4.44031
   16          C          -0.508294        4.5083     1.05546     3.45283
   17          O          -0.256433        6.2564     1.86901     4.38742
   18          H           0.170873        0.8291     0.82913
   19          H           0.205001        0.7950     0.79500
 DIPOLE           X         Y         Z       TOTAL
 POINT-CHG.    -1.308    -3.528     0.794     3.845
 HYBRID         0.228     0.755    -0.217     0.818
 SUM           -1.080    -2.773     0.577     3.031


          ATOMIC ORBITAL ELECTRON POPULATIONS

     Atom    s        px        py        pz   
    1  C   1.08134   0.99438   1.05942   1.02996
    2  H   0.85562
    3  C   1.06467   1.10436   1.03309   1.06784
    4  H   0.84892
    5  H   0.83204
    6  C   1.09052   1.00722   1.02189   1.00863
    7  H   0.85598
    8  C   1.05558   1.11910   1.07391   0.93805
    9  H   0.84464
   10  H   0.85170
   11  O   1.87391   1.53581   1.25426   1.68350
   12  C   1.09623   0.78309   0.79861   0.80823
   13  C   1.13801   0.88133   0.84004   0.67451
   14  C   1.11569   1.01004   1.00733   0.91147
   15  O   1.91992   1.62878   1.48385   1.32768
   16  C   1.05546   1.37848   1.02714   1.04721
   17  O   1.86901   1.70824   1.27725   1.40193
   18  H   0.82913
   19  H   0.79500

 **********************
 *                    *
 * JOB ENDED NORMALLY *
 *                    *
 **********************



 TOTAL JOB TIME:             0.04 SECONDS

 == MOPAC DONE ==
