 *******************************************************************************
 ** Site#: 36969        For non-commercial use only    Version 21.051W 64BITS **
 *******************************************************************************
 ** Cite this program as: MOPAC2016, Version: 21.051W, James J. P. Stewart,   **
 ** Stewart Computational Chemistry, web: HTTP://OpenMOPAC.net. Days left: 312**
 *******************************************************************************
 **                                                                           **
 **                                MOPAC2016                                  **
 **                                                                           **
 *******************************************************************************

                              PM7 CALCULATION RESULTS

 *******************************************************************************
 *  CALCULATION DONE:                                Wed Apr 14 18:29:11 2021  *
 *  PM7        - The PM7 Hamiltonian to be used
 *  T=         - A TIME OF 172800.0 SECONDS REQUESTED
 *  DUMP=N     - RESTART FILE WRITTEN EVERY 7200.0 SECONDS REQUESTED
 *******************************************************************************
PM7
 TSCoDe candidate

  ATOM    CHEMICAL      BOND LENGTH      BOND ANGLE     TWIST ANGLE 
 NUMBER    SYMBOL       (ANGSTROMS)      (DEGREES)       (DEGREES) 
   (I)                     NA:I           NB:NA:I       NC:NB:NA:I       NA    NB    NC 
     1       C         -0.76998600  *   -1.4514960  *   -0.5140650  *     0     0     0
     2       H         -1.30311500  *   -1.9153580  *   -1.3174980  *     0     0     0
     3       H         -2.52224700  *   -0.8660520  *    0.4999540  *     0     0     0
     4       H         -0.91910500  *   -0.4022070  *    1.3033580  *     0     0     0
     5       C          0.77003400  *   -1.4515140  *   -0.5140970  *     0     0     0
     6       H          1.30319900  *   -1.9153670  *   -1.3175120  *     0     0     0
     7       H          0.92458100  *   -0.4006030  *    1.3061340  *     0     0     0
     8       H          2.52221300  *   -0.8691800  *    0.4945360  *     0     0     0
     9       O         -0.00016900  *    1.9930000  *    1.4519780  *     0     0     0
    10       C         -1.16390700  *    1.5786570  *    0.7343140  *     0     0     0
    11       C          1.16369300  *    1.5787440  *    0.7344650  *     0     0     0
    12       O         -2.24364400  *    1.8265160  *    1.1636190  *     0     0     0
    13       O          2.24335600  *    1.8266840  *    1.1639100  *     0     0     0
    14       H         -1.36793800  *    0.4542990  *   -1.2131310  *     0     0     0
    15       H          1.36816200  *    0.4544020  *   -1.2129530  *     0     0     0
    16       C         -0.66730000  *    0.8660250  *   -0.5000000  *     0     0     0
    17       C          2.14853334      95.9518558  *  -69.3760794  *    16     9    10
    18       C          0.66730000  *    0.8660250  *   -0.5000000  *     0     0     0
    19       C          2.14853334      61.8326671  *   71.2385982  *    18     4    13
 


          CARTESIAN COORDINATES 

    NO.       ATOM           X           Y           Z

     1         C         -0.7700     -1.4515     -0.5141
     2         H         -1.3031     -1.9154     -1.3175
     3         H         -2.5222     -0.8661      0.5000
     4         H         -0.9191     -0.4022      1.3034
     5         C          0.7700     -1.4515     -0.5141
     6         H          1.3032     -1.9154     -1.3175
     7         H          0.9246     -0.4006      1.3061
     8         H          2.5222     -0.8692      0.4945
     9         O         -0.0002      1.9930      1.4520
    10         C         -1.1639      1.5787      0.7343
    11         C          1.1637      1.5787      0.7345
    12         O         -2.2436      1.8265      1.1636
    13         O          2.2434      1.8267      1.1639
    14         H         -1.3679      0.4543     -1.2131
    15         H          1.3682      0.4544     -1.2130
    16         C         -0.6673      0.8660     -0.5000
    17         C         -1.4523     -0.8660      0.5000
    18         C          0.6673      0.8660     -0.5000
    19         C          1.4523     -0.8660      0.5000

 General Reference for PM7:
 "Optimization of Parameters for Semiempirical Methods VI: More Modifications to the 
 NDDO Approximations and Re-optimization of Parameters", J. J. P. Stewart, J. Mol. Mod., 1:32, 19 (2013)
 https://link.springer.com/article/10.1007/s00894-012-1667-x

           Empirical Formula: C8 H8 O3  =    19 atoms



      MOLECULAR POINT GROUP   :   Cs  


      RHF CALCULATION, NO. OF DOUBLY OCCUPIED LEVELS = 29


          Geometry optimization using EF

          DIAGONAL MATRIX USED AS START HESSIAN

 CYCLE:     1 TIME:   0.008 TIME LEFT:  2.00D  GRAD.:   187.756 HEAT: 0.8078119
 CYCLE:     2 TIME:   0.016 TIME LEFT:  2.00D  GRAD.:   502.158 HEAT: -1.231334
 CYCLE:     3 TIME:   0.008 TIME LEFT:  2.00D  GRAD.:   210.459 HEAT: -9.386613
 CYCLE:     4 TIME:   0.008 TIME LEFT:  2.00D  GRAD.:   163.275 HEAT: -11.68739
 CYCLE:     5 TIME:   0.000 TIME LEFT:  2.00D  GRAD.:   139.586 HEAT: -15.02898
 CYCLE:     6 TIME:   0.008 TIME LEFT:  2.00D  GRAD.:   134.770 HEAT: -18.06057
 CYCLE:     7 TIME:   0.008 TIME LEFT:  2.00D  GRAD.:   273.501 HEAT: -20.24328
 CYCLE:     8 TIME:   0.008 TIME LEFT:  2.00D  GRAD.:    71.052 HEAT: -25.98078
 CYCLE:     9 TIME:   0.008 TIME LEFT:  2.00D  GRAD.:   270.637 HEAT: -26.52530
 CYCLE:    10 TIME:   0.008 TIME LEFT:  2.00D  GRAD.:   235.549 HEAT: -31.00319
 CYCLE:    11 TIME:   0.016 TIME LEFT:  2.00D  GRAD.:   105.650 HEAT: -34.27033
 CYCLE:    12 TIME:   0.008 TIME LEFT:  2.00D  GRAD.:   110.709 HEAT: -35.23428
 CYCLE:    13 TIME:   0.000 TIME LEFT:  2.00D  GRAD.:    71.181 HEAT: -36.40000
 CYCLE:    14 TIME:   0.008 TIME LEFT:  2.00D  GRAD.:    67.270 HEAT: -37.59173
 CYCLE:    15 TIME:   0.008 TIME LEFT:  2.00D  GRAD.:   114.645 HEAT: -37.59229
 CYCLE:    16 TIME:   0.000 TIME LEFT:  2.00D  GRAD.:   116.610 HEAT: -38.93033
 CYCLE:    17 TIME:   0.016 TIME LEFT:  2.00D  GRAD.:    73.770 HEAT: -39.15735
 CYCLE:    18 TIME:   0.008 TIME LEFT:  2.00D  GRAD.:    88.509 HEAT: -40.01091
 CYCLE:    19 TIME:   0.000 TIME LEFT:  2.00D  GRAD.:    83.560 HEAT: -40.02754
 CYCLE:    20 TIME:   0.008 TIME LEFT:  2.00D  GRAD.:   102.564 HEAT: -40.32243
 CYCLE:    21 TIME:   0.000 TIME LEFT:  2.00D  GRAD.:    82.788 HEAT: -40.91223
 CYCLE:    22 TIME:   0.008 TIME LEFT:  2.00D  GRAD.:    52.144 HEAT: -41.04869
 CYCLE:    23 TIME:   0.008 TIME LEFT:  2.00D  GRAD.:    68.454 HEAT: -41.28070
 CYCLE:    24 TIME:   0.000 TIME LEFT:  2.00D  GRAD.:    31.564 HEAT: -41.62535
 CYCLE:    25 TIME:   0.008 TIME LEFT:  2.00D  GRAD.:    46.789 HEAT: -41.66204
 CYCLE:    26 TIME:   0.008 TIME LEFT:  2.00D  GRAD.:    24.675 HEAT: -41.92209
 CYCLE:    27 TIME:   0.008 TIME LEFT:  2.00D  GRAD.:    29.322 HEAT: -41.93134
 CYCLE:    28 TIME:   0.008 TIME LEFT:  2.00D  GRAD.:    36.356 HEAT: -41.96280
 CYCLE:    29 TIME:   0.008 TIME LEFT:  2.00D  GRAD.:    17.029 HEAT: -42.15061
 CYCLE:    30 TIME:   0.000 TIME LEFT:  2.00D  GRAD.:     3.923 HEAT: -42.20009
 CYCLE:    31 TIME:   0.008 TIME LEFT:  2.00D  GRAD.:     5.654 HEAT: -42.22244
 CYCLE:    32 TIME:   0.008 TIME LEFT:  2.00D  GRAD.:     3.980 HEAT: -42.24281
 CYCLE:    33 TIME:   0.000 TIME LEFT:  2.00D  GRAD.:     2.037 HEAT: -42.25150
 CYCLE:    34 TIME:   0.008 TIME LEFT:  2.00D  GRAD.:     2.542 HEAT: -42.26018
 CYCLE:    35 TIME:   0.000 TIME LEFT:  2.00D  GRAD.:     2.180 HEAT: -42.26375
 CYCLE:    36 TIME:   0.008 TIME LEFT:  2.00D  GRAD.:     1.270 HEAT: -42.26571
 CYCLE:    37 TIME:   0.000 TIME LEFT:  2.00D  GRAD.:     1.237 HEAT: -42.26737
 CYCLE:    38 TIME:   0.008 TIME LEFT:  2.00D  GRAD.:     1.975 HEAT: -42.26991
 CYCLE:    39 TIME:   0.000 TIME LEFT:  2.00D  GRAD.:     1.629 HEAT: -42.27201
 CYCLE:    40 TIME:   0.008 TIME LEFT:  2.00D  GRAD.:     0.869 HEAT: -42.27306

     GRADIENT =  0.86872 IS LESS THAN CUTOFF =  1.00000



 -------------------------------------------------------------------------------
 PM7
 TSCoDe candidate



     GEOMETRY OPTIMISED USING EIGENVECTOR FOLLOWING (EF).     
     SCF FIELD WAS ACHIEVED                                   


                              PM7 CALCULATION
                                                       MOPAC2016 (Version: 21.051W)
                                                       Wed Apr 14 18:29:11 2021
                                                       No. of days remaining = 312




          FINAL HEAT OF FORMATION =        -42.27306 KCAL/MOL =    -176.87049 KJ/MOL


          TOTAL ENERGY            =      -1973.70808 EV
          ELECTRONIC ENERGY       =      -9719.61107 EV  POINT GROUP:     Cs  
          CORE-CORE REPULSION     =       7745.90298 EV
          COSMO AREA              =        170.19 SQUARE ANGSTROMS
          COSMO VOLUME            =        177.99 CUBIC ANGSTROMS

          GRADIENT NORM           =          0.86872 = 0.19930 PER ATOM
          IONIZATION POTENTIAL    =         10.095733 EV
          HOMO LUMO ENERGIES (EV) =        -10.096 -1.455
          NO. OF FILLED LEVELS    =         29
          MOLECULAR WEIGHT        =        152.1494

          MOLECULAR DIMENSIONS (Angstroms)

            Atom       Atom       Distance
            O    13    H     2     6.05890
            O    12    H     6     5.66681
            H    14    H     4     3.02356


          SCF CALCULATIONS        =         47
 
          WALL-CLOCK TIME         =          0.266 SECONDS
          COMPUTATION TIME        =          1.016 SECONDS




  ATOM    CHEMICAL      BOND LENGTH      BOND ANGLE     TWIST ANGLE 
 NUMBER    SYMBOL       (ANGSTROMS)      (DEGREES)       (DEGREES) 
   (I)                     NA:I           NB:NA:I       NC:NB:NA:I       NA    NB    NC 
     1       C         -0.70155077  *   -1.7386720  *   -0.5204346  *     0     0     0
     2       H         -1.22276892  *   -2.2777786  *   -1.3142770  *     0     0     0
     3       H         -2.48835175  *   -0.8067674  *    0.2463690  *     0     0     0
     4       H         -1.05629049  *   -0.6965951  *    1.3418521  *     0     0     0
     5       C          0.69988144  *   -1.7395537  *   -0.5213953  *     0     0     0
     6       H          1.21868805  *   -2.2791480  *   -1.3163106  *     0     0     0
     7       H          1.05964369  *   -0.6998802  *    1.3411950  *     0     0     0
     8       H          2.48927713  *   -0.8112759  *    0.2433320  *     0     0     0
     9       O         -0.00158429  *    2.1421686  *    1.4993777  *     0     0     0
    10       C         -1.14610632  *    1.7258842  *    0.8009472  *     0     0     0
    11       C          1.14576197  *    1.7247830  *    0.8052882  *     0     0     0
    12       O         -2.22622904  *    2.0113288  *    1.2144518  *     0     0     0
    13       O          2.22377716  *    2.0105169  *    1.2238614  *     0     0     0
    14       H         -1.33093259  *    0.8524857  *   -1.2551099  *     0     0     0
    15       H          1.33796997  *    0.8528034  *   -1.2500751  *     0     0     0
    16       C         -0.69536993  *    0.9514528  *   -0.3893646  *     0     0     0
    17       C          2.14853334     105.6807683  *  -75.2438967  *    16     9    10
    18       C          0.69931252  *    0.9508235  *   -0.3866924  *     0     0     0
    19       C          2.14853334      60.7248292  *   79.0647384  *    18     4    13

                             CARTESIAN COORDINATES

   1    C       -0.701550773    -1.738671961    -0.520434570
   2    H       -1.222768919    -2.277778639    -1.314277025
   3    H       -2.488351748    -0.806767370     0.246368961
   4    H       -1.056290487    -0.696595069     1.341852118
   5    C        0.699881441    -1.739553651    -0.521395260
   6    H        1.218688053    -2.279147991    -1.316310629
   7    H        1.059643690    -0.699880205     1.341195019
   8    H        2.489277129    -0.811275925     0.243331983
   9    O       -0.001584291     2.142168638     1.499377718
  10    C       -1.146106320     1.725884208     0.800947157
  11    C        1.145761966     1.724782978     0.805288211
  12    O       -2.226229036     2.011328824     1.214451839
  13    O        2.223777159     2.010516878     1.223861376
  14    H       -1.330932593     0.852485683    -1.255109895
  15    H        1.337969973     0.852803422    -1.250075086
  16    C       -0.695369933     0.951452823    -0.389364633
  17    C       -1.416252845    -0.934415930     0.345497523
  18    C        0.699312518     0.950823487    -0.386692374
  19    C        1.417390912    -0.937642635     0.344234873


           Empirical Formula: C8 H8 O3  =    19 atoms



      MOLECULAR POINT GROUP   :   Cs  


                  EIGENVALUES  
 -32.40375 -32.05769 -31.44967 -29.98116 -27.56790 -26.21967 -23.50733 -22.82273
 -20.99495 -20.83181 -18.76335 -18.14190 -17.13147 -16.71967 -16.26931 -15.80144
 -15.35843 -14.74716 -14.61922 -14.54762 -14.28185 -13.76559 -13.14785 -12.97425
 -12.09759 -11.54694 -11.20126 -10.31684 -10.09573  -1.45478  -0.86076   0.59532
   0.96051   1.06102   1.40264   2.36250   2.47961   3.55783   3.96393   4.12246
   4.15526   4.60949   4.80905   4.81521   4.88303   5.08567   5.20979   5.24166
   5.33466   5.50299   5.51280   5.70622


              NET ATOMIC CHARGES AND DIPOLE CONTRIBUTIONS

  ATOM NO.   TYPE          CHARGE      No. of ELECS.   s-Pop       p-Pop       
    1          C          -0.147038        4.1470     1.08414     3.06290
    2          H           0.153649        0.8464     0.84635
    3          H           0.155644        0.8444     0.84436
    4          H           0.158610        0.8414     0.84139
    5          C          -0.147456        4.1475     1.08404     3.06342
    6          H           0.153635        0.8464     0.84636
    7          H           0.158570        0.8414     0.84143
    8          H           0.155497        0.8445     0.84450
    9          O          -0.446524        6.4465     1.88166     4.56487
   10          C           0.577619        3.4224     1.12167     2.30071
   11          C           0.577577        3.4224     1.12180     2.30063
   12          O          -0.384047        6.3840     1.87537     4.50868
   13          O          -0.383709        6.3837     1.87534     4.50836
   14          H           0.187330        0.8127     0.81267
   15          H           0.187343        0.8127     0.81266
   16          C          -0.254766        4.2548     1.10995     3.14482
   17          C          -0.223493        4.2235     1.11173     3.11176
   18          C          -0.255395        4.2554     1.10978     3.14562
   19          C          -0.223046        4.2230     1.11162     3.11143
 DIPOLE           X         Y         Z       TOTAL
 POINT-CHG.     0.010    -4.401    -4.093     6.010
 HYBRID        -0.000     0.389     0.447     0.593
 SUM            0.010    -4.012    -3.646     5.422


          ATOMIC ORBITAL ELECTRON POPULATIONS

     Atom    s        px        py        pz   
    1  C   1.08414   1.00675   0.99936   1.05679
    2  H   0.84635
    3  H   0.84436
    4  H   0.84139
    5  C   1.08404   1.00663   0.99975   1.05705
    6  H   0.84636
    7  H   0.84143
    8  H   0.84450
    9  O   1.88166   1.29230   1.71708   1.55549
   10  C   1.12167   0.77662   0.72749   0.79660
   11  C   1.12180   0.77625   0.72753   0.79684
   12  O   1.87537   1.31584   1.53497   1.65787
   13  O   1.87534   1.31772   1.53477   1.65587
   14  H   0.81267
   15  H   0.81266
   16  C   1.10995   1.02882   1.03981   1.07619
   17  C   1.11173   1.10795   0.94016   1.06366
   18  C   1.10978   1.02925   1.04042   1.07595
   19  C   1.11162   1.10768   0.93978   1.06397

 **********************
 *                    *
 * JOB ENDED NORMALLY *
 *                    *
 **********************



 TOTAL JOB TIME:             0.27 SECONDS

 == MOPAC DONE ==
