 *******************************************************************************
 ** Site#: 36969        For non-commercial use only    Version 21.051W 64BITS **
 *******************************************************************************
 ** Cite this program as: MOPAC2016, Version: 21.051W, James J. P. Stewart,   **
 ** Stewart Computational Chemistry, web: HTTP://OpenMOPAC.net. Days left: 307**
 *******************************************************************************
 **                                                                           **
 **                                MOPAC2016                                  **
 **                                                                           **
 *******************************************************************************

                              PM7 CALCULATION RESULTS

 *******************************************************************************
 *  CALCULATION DONE:                                Mon Apr 19 11:20:19 2021  *
 *  PM7        - The PM7 Hamiltonian to be used
 *  T=         - A TIME OF 172800.0 SECONDS REQUESTED
 *  DUMP=N     - RESTART FILE WRITTEN EVERY 7200.0 SECONDS REQUESTED
 *******************************************************************************
PM7
 temp

  ATOM    CHEMICAL      BOND LENGTH      BOND ANGLE     TWIST ANGLE 
 NUMBER    SYMBOL       (ANGSTROMS)      (DEGREES)       (DEGREES) 
   (I)                     NA:I           NB:NA:I       NC:NB:NA:I       NA    NB    NC 
     1       C          1.78318002  *   -1.8242313  *   -0.5779242  *     0     0     0
     2       H          1.03047020  *   -2.2545100  *   -1.2430163  *     0     0     0
     3       H          1.63879293  *   -2.1931819  *    0.4404645  *     0     0     0
     4       H          2.77904780  *   -2.1066826  *   -0.9274674  *     0     0     0
     5       C          2.08260338  *    1.8942590  *   -1.9267025  *     0     0     0
     6       H          2.07187448  *    1.0189102  *   -2.5806970  *     0     0     0
     7       H          3.09169538  *    2.3101346  *   -1.8731449  *     0     0     0
     8       H          1.40009470  *    2.6501414  *   -2.3223481  *     0     0     0
     9       C          0.54140171  *    0.3627258  *    0.9722236  *     0     0     0
    10       H          0.57731066  *    1.2111482  *    1.6599366  *     0     0     0
    11       H          1.54376250  *   -0.0492636  *    0.8321335  *     0     0     0
    12       H         -0.11305213  *   -0.4093541  *    1.3836777  *     0     0     0
    13       H          2.27914034  *    0.8503286  *   -0.3048694  *     0     0     0
    14       O          1.42928831     125.2138754  *   -3.8631120  *    13     7     2
    15       H          0.62634990  *    1.4710820  *   -0.6162004  *     0     0     0
    16       O          1.02988547      61.7850008  *  126.1762453  *    15     4     3
    17       O          0.02524811  *    0.7867595  *   -0.2759819  *     0     0     0
    18       H          1.23691203      82.3901759  *  -38.6662775  *    17     5    12
 


          CARTESIAN COORDINATES 

    NO.       ATOM           X           Y           Z

     1         C          1.7832     -1.8242     -0.5779
     2         H          1.0305     -2.2545     -1.2430
     3         H          1.6388     -2.1932      0.4405
     4         H          2.7790     -2.1067     -0.9275
     5         C          2.0826      1.8943     -1.9267
     6         H          2.0719      1.0189     -2.5807
     7         H          3.0917      2.3101     -1.8731
     8         H          1.4001      2.6501     -2.3223
     9         C          0.5414      0.3627      0.9722
    10         H          0.5773      1.2111      1.6599
    11         H          1.5438     -0.0493      0.8321
    12         H         -0.1131     -0.4094      1.3837
    13         H          2.2791      0.8503     -0.3049
    14         O          1.6740     -0.4128     -0.5899
    15         H          0.6263      1.4711     -0.6162
    16         O          1.6549      1.5213     -0.6297
    17         O          0.0252      0.7868     -0.2760
    18         H          0.7808     -0.1925     -0.2752

 General Reference for PM7:
 "Optimization of Parameters for Semiempirical Methods VI: More Modifications to the 
 NDDO Approximations and Re-optimization of Parameters", J. J. P. Stewart, J. Mol. Mod., 1:32, 19 (2013)
 https://link.springer.com/article/10.1007/s00894-012-1667-x

           Empirical Formula: C3 H12 O3  =    18 atoms



      MOLECULAR POINT GROUP   :   C1  


      RHF CALCULATION, NO. OF DOUBLY OCCUPIED LEVELS = 21


          Geometry optimization using EF

          DIAGONAL MATRIX USED AS START HESSIAN

 CYCLE:     1 TIME:   0.008 TIME LEFT:  2.00D  GRAD.:   738.294 HEAT:  55.30868
 CYCLE:     2 TIME:   0.008 TIME LEFT:  2.00D  GRAD.:   277.248 HEAT: -30.93223
 CYCLE:     3 TIME:   0.004 TIME LEFT:  2.00D  GRAD.:   210.897 HEAT: -68.74241
 CYCLE:     4 TIME:   0.004 TIME LEFT:  2.00D  GRAD.:   472.949 HEAT: -69.34029
 CYCLE:     5 TIME:   0.004 TIME LEFT:  2.00D  GRAD.:   431.232 HEAT: -79.58060
 CYCLE:     6 TIME:   0.004 TIME LEFT:  2.00D  GRAD.:   219.252 HEAT: -98.78151
 CYCLE:     7 TIME:   0.004 TIME LEFT:  2.00D  GRAD.:   146.223 HEAT: -107.8156
 CYCLE:     8 TIME:   0.004 TIME LEFT:  2.00D  GRAD.:   173.351 HEAT: -111.8239
 CYCLE:     9 TIME:   0.004 TIME LEFT:  2.00D  GRAD.:   117.066 HEAT: -117.4817
 CYCLE:    10 TIME:   0.008 TIME LEFT:  2.00D  GRAD.:    67.388 HEAT: -121.8109
 CYCLE:    11 TIME:   0.004 TIME LEFT:  2.00D  GRAD.:    80.696 HEAT: -123.0063
 CYCLE:    12 TIME:   0.008 TIME LEFT:  2.00D  GRAD.:    56.456 HEAT: -126.1032
 CYCLE:    13 TIME:   0.004 TIME LEFT:  2.00D  GRAD.:    38.594 HEAT: -128.2369
 CYCLE:    14 TIME:   0.004 TIME LEFT:  2.00D  GRAD.:    37.892 HEAT: -130.0673
 CYCLE:    15 TIME:   0.004 TIME LEFT:  2.00D  GRAD.:    45.083 HEAT: -131.2910
 CYCLE:    16 TIME:   0.004 TIME LEFT:  2.00D  GRAD.:    26.682 HEAT: -132.5037
 CYCLE:    17 TIME:   0.004 TIME LEFT:  2.00D  GRAD.:    22.344 HEAT: -133.2050
 CYCLE:    18 TIME:   0.008 TIME LEFT:  2.00D  GRAD.:    19.940 HEAT: -133.8360
 CYCLE:    19 TIME:   0.004 TIME LEFT:  2.00D  GRAD.:    21.575 HEAT: -134.3954
 CYCLE:    20 TIME:   0.004 TIME LEFT:  2.00D  GRAD.:    35.337 HEAT: -134.9545
 CYCLE:    21 TIME:   0.008 TIME LEFT:  2.00D  GRAD.:    27.388 HEAT: -135.6896
 CYCLE:    22 TIME:   0.004 TIME LEFT:  2.00D  GRAD.:    27.234 HEAT: -136.3892
 CYCLE:    23 TIME:   0.000 TIME LEFT:  2.00D  GRAD.:    26.599 HEAT: -136.8622
 CYCLE:    24 TIME:   0.004 TIME LEFT:  2.00D  GRAD.:    17.615 HEAT: -137.4075
 CYCLE:    25 TIME:   0.004 TIME LEFT:  2.00D  GRAD.:    18.760 HEAT: -137.7030
 CYCLE:    26 TIME:   0.008 TIME LEFT:  2.00D  GRAD.:    25.124 HEAT: -138.0155
 CYCLE:    27 TIME:   0.004 TIME LEFT:  2.00D  GRAD.:    15.972 HEAT: -138.2440
 CYCLE:    28 TIME:   0.004 TIME LEFT:  2.00D  GRAD.:    12.076 HEAT: -138.5363
 CYCLE:    29 TIME:   0.000 TIME LEFT:  2.00D  GRAD.:    10.176 HEAT: -138.8110
 CYCLE:    30 TIME:   0.004 TIME LEFT:  2.00D  GRAD.:     7.398 HEAT: -139.0402
 CYCLE:    31 TIME:   0.008 TIME LEFT:  2.00D  GRAD.:     9.957 HEAT: -139.1435
 CYCLE:    32 TIME:   0.008 TIME LEFT:  2.00D  GRAD.:    10.259 HEAT: -139.1963
 CYCLE:    33 TIME:   0.004 TIME LEFT:  2.00D  GRAD.:     8.437 HEAT: -139.2413
 CYCLE:    34 TIME:   0.004 TIME LEFT:  2.00D  GRAD.:    10.351 HEAT: -139.2589
 CYCLE:    35 TIME:   0.004 TIME LEFT:  2.00D  GRAD.:     4.561 HEAT: -139.2917
 CYCLE:    36 TIME:   0.000 TIME LEFT:  2.00D  GRAD.:     3.111 HEAT: -139.3145
 CYCLE:    37 TIME:   0.004 TIME LEFT:  2.00D  GRAD.:     2.979 HEAT: -139.3359
 CYCLE:    38 TIME:   0.008 TIME LEFT:  2.00D  GRAD.:     2.452 HEAT: -139.3476
 CYCLE:    39 TIME:   0.004 TIME LEFT:  2.00D  GRAD.:     3.204 HEAT: -139.3594
 CYCLE:    40 TIME:   0.004 TIME LEFT:  2.00D  GRAD.:     3.872 HEAT: -139.3865
 CYCLE:    41 TIME:   0.004 TIME LEFT:  2.00D  GRAD.:     4.092 HEAT: -139.4068
 CYCLE:    42 TIME:   0.004 TIME LEFT:  2.00D  GRAD.:     2.971 HEAT: -139.4264
 CYCLE:    43 TIME:   0.004 TIME LEFT:  2.00D  GRAD.:     2.355 HEAT: -139.4402
 CYCLE:    44 TIME:   0.004 TIME LEFT:  2.00D  GRAD.:     2.667 HEAT: -139.4495
 CYCLE:    45 TIME:   0.000 TIME LEFT:  2.00D  GRAD.:     2.527 HEAT: -139.4561
 CYCLE:    46 TIME:   0.004 TIME LEFT:  2.00D  GRAD.:     2.166 HEAT: -139.4622
 CYCLE:    47 TIME:   0.004 TIME LEFT:  2.00D  GRAD.:     2.395 HEAT: -139.4723
 CYCLE:    48 TIME:   0.000 TIME LEFT:  2.00D  GRAD.:     2.742 HEAT: -139.4867
 CYCLE:    49 TIME:   0.004 TIME LEFT:  2.00D  GRAD.:     2.798 HEAT: -139.5013
 CYCLE:    50 TIME:   0.004 TIME LEFT:  2.00D  GRAD.:     2.920 HEAT: -139.5193
 CYCLE:    51 TIME:   0.004 TIME LEFT:  2.00D  GRAD.:     2.675 HEAT: -139.5365
 CYCLE:    52 TIME:   0.000 TIME LEFT:  2.00D  GRAD.:     2.405 HEAT: -139.5503
 CYCLE:    53 TIME:   0.004 TIME LEFT:  2.00D  GRAD.:     1.707 HEAT: -139.5583
 CYCLE:    54 TIME:   0.004 TIME LEFT:  2.00D  GRAD.:     1.853 HEAT: -139.5636
 CYCLE:    55 TIME:   0.008 TIME LEFT:  2.00D  GRAD.:     2.578 HEAT: -139.5685
 CYCLE:    56 TIME:   0.004 TIME LEFT:  2.00D  GRAD.:     2.225 HEAT: -139.5749
 CYCLE:    57 TIME:   0.004 TIME LEFT:  2.00D  GRAD.:     2.753 HEAT: -139.5887
 CYCLE:    58 TIME:   0.004 TIME LEFT:  2.00D  GRAD.:     3.288 HEAT: -139.6018
 CYCLE:    59 TIME:   0.004 TIME LEFT:  2.00D  GRAD.:     5.016 HEAT: -139.6233
 CYCLE:    60 TIME:   0.004 TIME LEFT:  2.00D  GRAD.:     4.537 HEAT: -139.6480
 CYCLE:    61 TIME:   0.004 TIME LEFT:  2.00D  GRAD.:     5.082 HEAT: -139.6920
 CYCLE:    62 TIME:   0.000 TIME LEFT:  2.00D  GRAD.:     5.379 HEAT: -139.7184
 CYCLE:    63 TIME:   0.004 TIME LEFT:  2.00D  GRAD.:     8.229 HEAT: -139.7269
 CYCLE:    64 TIME:   0.000 TIME LEFT:  2.00D  GRAD.:     4.075 HEAT: -139.7636
 CYCLE:    65 TIME:   0.008 TIME LEFT:  2.00D  GRAD.:     5.213 HEAT: -139.7841
 CYCLE:    66 TIME:   0.004 TIME LEFT:  2.00D  GRAD.:     6.561 HEAT: -139.8079
 CYCLE:    67 TIME:   0.004 TIME LEFT:  2.00D  GRAD.:     3.388 HEAT: -139.8277
 CYCLE:    68 TIME:   0.008 TIME LEFT:  2.00D  GRAD.:     5.351 HEAT: -139.8489
 CYCLE:    69 TIME:   0.004 TIME LEFT:  2.00D  GRAD.:     7.869 HEAT: -139.8500
 CYCLE:    70 TIME:   0.000 TIME LEFT:  2.00D  GRAD.:     3.098 HEAT: -139.8638
 CYCLE:    71 TIME:   0.004 TIME LEFT:  2.00D  GRAD.:     3.029 HEAT: -139.8625
 CYCLE:    72 TIME:   0.004 TIME LEFT:  2.00D  GRAD.:     1.602 HEAT: -139.8718
 CYCLE:    73 TIME:   0.004 TIME LEFT:  2.00D  GRAD.:     2.059 HEAT: -139.8747
 CYCLE:    74 TIME:   0.000 TIME LEFT:  2.00D  GRAD.:     4.895 HEAT: -139.8759
 CYCLE:    75 TIME:   0.004 TIME LEFT:  2.00D  GRAD.:     2.474 HEAT: -139.8851
 CYCLE:    76 TIME:   0.004 TIME LEFT:  2.00D  GRAD.:     1.437 HEAT: -139.8920
 CYCLE:    77 TIME:   0.004 TIME LEFT:  2.00D  GRAD.:     3.771 HEAT: -139.9038
 CYCLE:    78 TIME:   0.004 TIME LEFT:  2.00D  GRAD.:     3.070 HEAT: -139.9149
 CYCLE:    79 TIME:   0.004 TIME LEFT:  2.00D  GRAD.:     2.410 HEAT: -139.9292
 CYCLE:    80 TIME:   0.004 TIME LEFT:  2.00D  GRAD.:     4.620 HEAT: -139.9403
 CYCLE:    81 TIME:   0.000 TIME LEFT:  2.00D  GRAD.:     4.171 HEAT: -139.9441
 CYCLE:    82 TIME:   0.004 TIME LEFT:  2.00D  GRAD.:     5.803 HEAT: -139.9398
 CYCLE:    83 TIME:   0.004 TIME LEFT:  2.00D  GRAD.:     6.623 HEAT: -139.9480
 CYCLE:    84 TIME:   0.000 TIME LEFT:  2.00D  GRAD.:     3.441 HEAT: -139.9468
 CYCLE:    85 TIME:   0.004 TIME LEFT:  2.00D  GRAD.:     1.593 HEAT: -139.9526
 CYCLE:    86 TIME:   0.004 TIME LEFT:  2.00D  GRAD.:     1.314 HEAT: -139.9548
 CYCLE:    87 TIME:   0.000 TIME LEFT:  2.00D  GRAD.:     1.783 HEAT: -139.9571
 CYCLE:    88 TIME:   0.004 TIME LEFT:  2.00D  GRAD.:     4.875 HEAT: -139.9649
 CYCLE:    89 TIME:   0.004 TIME LEFT:  2.00D  GRAD.:     4.296 HEAT: -139.9722
 CYCLE:    90 TIME:   0.000 TIME LEFT:  2.00D  GRAD.:     3.164 HEAT: -139.9760
 CYCLE:    91 TIME:   0.004 TIME LEFT:  2.00D  GRAD.:     5.327 HEAT: -139.9673
 CYCLE:    92 TIME:   0.004 TIME LEFT:  2.00D  GRAD.:     4.395 HEAT: -139.9823
 CYCLE:    93 TIME:   0.004 TIME LEFT:  2.00D  GRAD.:     3.348 HEAT: -139.9859
 CYCLE:    94 TIME:   0.004 TIME LEFT:  2.00D  GRAD.:     3.230 HEAT: -139.9909
 CYCLE:    95 TIME:   0.004 TIME LEFT:  2.00D  GRAD.:    12.260 HEAT: -140.0026
 CYCLE:    96 TIME:   0.004 TIME LEFT:  2.00D  GRAD.:     3.761 HEAT: -140.0256
 CYCLE:    97 TIME:   0.004 TIME LEFT:  2.00D  GRAD.:     2.990 HEAT: -140.0354
 CYCLE:    98 TIME:   0.008 TIME LEFT:  2.00D  GRAD.:     4.323 HEAT: -140.0503
 CYCLE:    99 TIME:   0.008 TIME LEFT:  2.00D  GRAD.:     2.620 HEAT: -140.0590
 CYCLE:   100 TIME:   0.004 TIME LEFT:  2.00D  GRAD.:     2.427 HEAT: -140.0680
 CYCLE:   101 TIME:   0.004 TIME LEFT:  2.00D  GRAD.:     2.969 HEAT: -140.0796
 CYCLE:   102 TIME:   0.004 TIME LEFT:  2.00D  GRAD.:     2.375 HEAT: -140.0860
 CYCLE:   103 TIME:   0.008 TIME LEFT:  2.00D  GRAD.:     2.527 HEAT: -140.0922
 CYCLE:   104 TIME:   0.004 TIME LEFT:  2.00D  GRAD.:     1.314 HEAT: -140.0957
 CYCLE:   105 TIME:   0.000 TIME LEFT:  2.00D  GRAD.:     1.070 HEAT: -140.0990
 CYCLE:   106 TIME:   0.004 TIME LEFT:  2.00D  GRAD.:     0.888 HEAT: -140.0998

     GRADIENT =  0.88819 IS LESS THAN CUTOFF =  1.00000



 -------------------------------------------------------------------------------
 PM7
 temp



     GEOMETRY OPTIMISED USING EIGENVECTOR FOLLOWING (EF).     
     SCF FIELD WAS ACHIEVED                                   


                              PM7 CALCULATION
                                                       MOPAC2016 (Version: 21.051W)
                                                       Mon Apr 19 11:20:19 2021
                                                       No. of days remaining = 307




          FINAL HEAT OF FORMATION =       -140.09984 KCAL/MOL =    -586.17772 KJ/MOL


          TOTAL ENERGY            =      -1415.32647 EV
          ELECTRONIC ENERGY       =      -5639.49266 EV  POINT GROUP:     C1  
          CORE-CORE REPULSION     =       4224.16619 EV
          COSMO AREA              =        150.17 SQUARE ANGSTROMS
          COSMO VOLUME            =        138.97 CUBIC ANGSTROMS

          GRADIENT NORM           =          0.88819 = 0.20935 PER ATOM
          IONIZATION POTENTIAL    =          9.785333 EV
          HOMO LUMO ENERGIES (EV) =         -9.785  0.989
          NO. OF FILLED LEVELS    =         21
          MOLECULAR WEIGHT        =         96.1260

          MOLECULAR DIMENSIONS (Angstroms)

            Atom       Atom       Distance
            H    12    H     7     6.20382
            H     8    H     4     5.31161
            H    11    H     6     2.74935


          SCF CALCULATIONS        =        115
 
          WALL-CLOCK TIME         =          0.430 SECONDS
          COMPUTATION TIME        =          1.656 SECONDS




  ATOM    CHEMICAL      BOND LENGTH      BOND ANGLE     TWIST ANGLE 
 NUMBER    SYMBOL       (ANGSTROMS)      (DEGREES)       (DEGREES) 
   (I)                     NA:I           NB:NA:I       NC:NB:NA:I       NA    NB    NC 
     1       C          1.94179370  *   -2.0458367  *   -0.7085684  *     0     0     0
     2       H          1.20344374  *   -2.8143274  *   -0.4453310  *     0     0     0
     3       H          2.41496234  *   -1.6511045  *    0.1957115  *     0     0     0
     4       H          2.69510426  *   -2.4719771  *   -1.3827846  *     0     0     0
     5       C          2.15020656  *    2.1539716  *   -2.2108118  *     0     0     0
     6       H          1.33707263  *    1.8290189  *   -2.8690694  *     0     0     0
     7       H          3.12244129  *    2.1244477  *   -2.7162256  *     0     0     0
     8       H          1.94934553  *    3.1483721  *   -1.7955173  *     0     0     0
     9       C          0.21379019  *    0.3986720  *    1.3706652  *     0     0     0
    10       H          0.05587376  *    1.3615655  *    1.8721402  *     0     0     0
    11       H          1.17262076  *   -0.0356652  *    1.6705970  *     0     0     0
    12       H         -0.60730238  *   -0.2879150  *    1.6146941  *     0     0     0
    13       H          2.09346828  *    0.1297628  *   -1.4489231  *     0     0     0
    14       O          1.42928831     150.9777319  *  -58.2648573  *    13     7     2
    15       H          1.42962774  *    1.2195076  *   -0.5288922  *     0     0     0
    16       O          1.02988547      69.5410801  *  121.3163495  *    15     4     3
    17       O          0.17835526  *    0.6518190  *    0.0002217  *     0     0     0
    18       H          1.23691203      81.7991638  *  -91.7388310  *    17     5    12

                             CARTESIAN COORDINATES

   1    C        1.941793700    -2.045836698    -0.708568408
   2    H        1.203443744    -2.814327388    -0.445331010
   3    H        2.414962336    -1.651104519     0.195711516
   4    H        2.695104257    -2.471977131    -1.382784623
   5    C        2.150206558     2.153971634    -2.210811751
   6    H        1.337072632     1.829018927    -2.869069354
   7    H        3.122441295     2.124447732    -2.716225638
   8    H        1.949345534     3.148372134    -1.795517262
   9    C        0.213790193     0.398672030     1.370665219
  10    H        0.055873757     1.361565541     1.872140199
  11    H        1.172620755    -0.035665171     1.670597049
  12    H       -0.607302385    -0.287914982     1.614694109
  13    H        2.093468280     0.129762769    -1.448923094
  14    O        1.275149689    -1.041592588    -1.415064779
  15    H        1.429627744     1.219507634    -0.528892155
  16    O        2.288229668     1.255587299    -1.096488022
  17    O        0.178355261     0.651819030     0.000221655
  18    H        0.514653040    -0.348678607    -0.644650155


           Empirical Formula: C3 H12 O3  =    18 atoms



      MOLECULAR POINT GROUP   :   C1  


                  EIGENVALUES  
 -31.03228 -28.00738 -27.11338 -25.00992 -23.26480 -22.67764 -18.69613 -17.99379
 -16.85138 -15.88458 -15.01680 -14.79490 -14.47637 -14.37111 -14.12614 -13.39718
 -13.03529 -11.88245 -10.45924 -10.11655  -9.78533   0.98863   3.09982   3.98211
   4.63267   4.75818   4.94655   5.33063   5.69961   5.74299   5.85931   5.96021
   6.05334   6.30891   6.59539   6.79394


              NET ATOMIC CHARGES AND DIPOLE CONTRIBUTIONS

  ATOM NO.   TYPE          CHARGE      No. of ELECS.   s-Pop       p-Pop       
    1          C          -0.127281        4.1273     1.06950     3.05778
    2          H           0.124834        0.8752     0.87517
    3          H           0.098752        0.9012     0.90125
    4          H           0.119584        0.8804     0.88042
    5          C          -0.152299        4.1523     1.09201     3.06029
    6          H           0.146290        0.8537     0.85371
    7          H           0.149020        0.8510     0.85098
    8          H           0.148092        0.8519     0.85191
    9          C          -0.114215        4.1142     1.06814     3.04607
   10          H           0.119859        0.8801     0.88014
   11          H           0.094547        0.9055     0.90545
   12          H           0.118323        0.8817     0.88168
   13          H           0.431911        0.5681     0.56809
   14          O          -0.730844        6.7308     1.88731     4.84353
   15          H           0.401624        0.5984     0.59838
   16          O          -0.497849        6.4978     1.83625     4.66160
   17          O          -0.755411        6.7554     1.88135     4.87406
   18          H           0.425061        0.5749     0.57494
 DIPOLE           X         Y         Z       TOTAL
 POINT-CHG.     2.875     1.414     0.093     3.205
 HYBRID        -0.187    -0.072    -0.034     0.203
 SUM            2.688     1.342     0.059     3.005


          ATOMIC ORBITAL ELECTRON POPULATIONS

     Atom    s        px        py        pz   
    1  C   1.06950   1.05969   0.95800   1.04010
    2  H   0.87517
    3  H   0.90125
    4  H   0.88042
    5  C   1.09201   1.15522   0.99207   0.91301
    6  H   0.85371
    7  H   0.85098
    8  H   0.85191
    9  C   1.06814   1.11288   1.12161   0.81158
   10  H   0.88014
   11  H   0.90545
   12  H   0.88168
   13  H   0.56809
   14  O   1.88731   1.66747   1.51285   1.66320
   15  H   0.59838
   16  O   1.83625   1.65061   1.53699   1.47400
   17  O   1.88135   1.85086   1.71834   1.30486
   18  H   0.57494

 **********************
 *                    *
 * JOB ENDED NORMALLY *
 *                    *
 **********************



 TOTAL JOB TIME:             0.43 SECONDS

 == MOPAC DONE ==
