 *******************************************************************************
 ** Site#: 36969        For non-commercial use only    Version 21.051W 64BITS **
 *******************************************************************************
 ** Cite this program as: MOPAC2016, Version: 21.051W, James J. P. Stewart,   **
 ** Stewart Computational Chemistry, web: HTTP://OpenMOPAC.net. Days left: 311**
 *******************************************************************************
 **                                                                           **
 **                                MOPAC2016                                  **
 **                                                                           **
 *******************************************************************************

                              PM7 CALCULATION RESULTS

 *******************************************************************************
 *  CALCULATION DONE:                                Thu Apr 15 16:20:20 2021  *
 *  PM7        - The PM7 Hamiltonian to be used
 *  T=         - A TIME OF 172800.0 SECONDS REQUESTED
 *  DUMP=N     - RESTART FILE WRITTEN EVERY 7200.0 SECONDS REQUESTED
 *******************************************************************************
PM7
 temp

  ATOM    CHEMICAL      BOND LENGTH      BOND ANGLE     TWIST ANGLE 
 NUMBER    SYMBOL       (ANGSTROMS)      (DEGREES)       (DEGREES) 
   (I)                     NA:I           NB:NA:I       NC:NB:NA:I       NA    NB    NC 
     1       H         -0.75462093  *   -0.8351840  *   -0.6601302  *     0     0     0
     2       C         -0.63520388  *    0.0416376  *    1.2524782  *     0     0     0
     3       H         -1.07296460  *    0.1157925  *    2.2260264  *     0     0     0
     4       C          0.63219042  *    0.8497336  *    0.9173774  *     0     0     0
     5       H          1.07197682  *    1.4834162  *    1.6589010  *     0     0     0
     6       H          0.75703573  *    0.1289593  *   -1.0590746  *     0     0     0
     7       H          2.07289877  *    1.3248878  *   -0.5403102  *     0     0     0
     8       C         -2.45969365  *   -1.5690727  *    0.6484971  *     0     0     0
     9       H         -2.75451154  *   -2.1409815  *   -0.2064387  *     0     0     0
    10       H         -2.25636109  *   -2.2287449  *    1.4659888  *     0     0     0
    11       H         -3.24893969  *   -0.8989757  *    0.9186688  *     0     0     0
    12       O          0.00009374  *   -0.4953411  *    2.1988469  *     0     0     0
    13       C          0.64604376  *   -1.2576279  *    1.1777319  *     0     0     0
    14       C         -0.64592520  *    0.6311415  *    1.6032760  *     0     0     0
    15       O          1.24536791  *   -2.2427282  *    1.4640145  *     0     0     0
    16       O         -1.24520811  *    1.3983221  *    2.2843515  *     0     0     0
    17       H         -0.75941848  *    1.2911115  *   -0.5530980  *     0     0     0
    18       C          0.92430073  *   -1.0936049  *   -1.4485383  *     0     0     0
    19       H          1.99261127  *   -1.1301584  *   -1.4012601  *     0     0     0
    20       H          0.54063804  *   -2.0788972  *   -1.6127710  *     0     0     0
    21       H          0.62447330  *   -0.4554779  *   -2.2533632  *     0     0     0
    22       C         -0.37039478  *    0.5415026  *    0.1219505  *     0     0     0
    23       C          1.55197649      89.7473587  *  129.1304124  *    22    16     6
    24       C          0.37039478  *   -0.5415026  *   -0.1219505  *     0     0     0
    25       C          1.55197649      82.1631480  *  127.5794621  *    24    16     1
 


          CARTESIAN COORDINATES 

    NO.       ATOM           X           Y           Z

     1         H         -0.7546     -0.8352     -0.6601
     2         C         -0.6352      0.0416      1.2525
     3         H         -1.0730      0.1158      2.2260
     4         C          0.6322      0.8497      0.9174
     5         H          1.0720      1.4834      1.6589
     6         H          0.7570      0.1290     -1.0591
     7         H          2.0729      1.3249     -0.5403
     8         C         -2.4597     -1.5691      0.6485
     9         H         -2.7545     -2.1410     -0.2064
    10         H         -2.2564     -2.2287      1.4660
    11         H         -3.2489     -0.8990      0.9187
    12         O          0.0001     -0.4953      2.1988
    13         C          0.6460     -1.2576      1.1777
    14         C         -0.6459      0.6311      1.6033
    15         O          1.2454     -2.2427      1.4640
    16         O         -1.2452      1.3983      2.2844
    17         H         -0.7594      1.2911     -0.5531
    18         C          0.9243     -1.0936     -1.4485
    19         H          1.9926     -1.1302     -1.4013
    20         H          0.5406     -2.0789     -1.6128
    21         H          0.6245     -0.4555     -2.2534
    22         C         -0.3704      0.5415      0.1220
    23         C         -1.1923     -0.7610      0.3134
    24         C          0.3704     -0.5415     -0.1220
    25         C          1.1923      0.7610     -0.3134

 General Reference for PM7:
 "Optimization of Parameters for Semiempirical Methods VI: More Modifications to the 
 NDDO Approximations and Re-optimization of Parameters", J. J. P. Stewart, J. Mol. Mod., 1:32, 19 (2013)
 https://link.springer.com/article/10.1007/s00894-012-1667-x

           Empirical Formula: C10 H12 O3  =    25 atoms



      MOLECULAR POINT GROUP   :   C1  


      RHF CALCULATION, NO. OF DOUBLY OCCUPIED LEVELS = 35


          Geometry optimization using EF

          DIAGONAL MATRIX USED AS START HESSIAN

 CYCLE:     1 TIME:   0.020 TIME LEFT:  2.00D  GRAD.: 13226.816 HEAT:  2985.247
 CYCLE:     2 TIME:   0.027 TIME LEFT:  2.00D  GRAD.:  3430.660 HEAT:  1679.273
 CYCLE:     3 TIME:   0.016 TIME LEFT:  2.00D  GRAD.:  2463.686 HEAT:  1321.446
 CYCLE:     4 TIME:   0.016 TIME LEFT:  2.00D  GRAD.:  1308.881 HEAT:  904.5708
 CYCLE:     5 TIME:   0.016 TIME LEFT:  2.00D  GRAD.:   857.684 HEAT:  643.3193
 CYCLE:     6 TIME:   0.016 TIME LEFT:  2.00D  GRAD.:   780.731 HEAT:  493.3259
 CYCLE:     7 TIME:   0.016 TIME LEFT:  2.00D  GRAD.:   480.784 HEAT:  317.2217
 CYCLE:     8 TIME:   0.000 TIME LEFT:  2.00D  GRAD.:   816.224 HEAT:  291.5960
 CYCLE:     9 TIME:   0.016 TIME LEFT:  2.00D  GRAD.:   620.415 HEAT:  246.3740
 CYCLE:    10 TIME:   0.008 TIME LEFT:  2.00D  GRAD.:   439.110 HEAT:  200.8737
 CYCLE:    11 TIME:   0.008 TIME LEFT:  2.00D  GRAD.:   415.447 HEAT:  183.1208
 CYCLE:    12 TIME:   0.016 TIME LEFT:  2.00D  GRAD.:   347.901 HEAT:  169.3401
 CYCLE:    13 TIME:   0.000 TIME LEFT:  2.00D  GRAD.:   234.042 HEAT:  134.7268
 CYCLE:    14 TIME:   0.016 TIME LEFT:  2.00D  GRAD.:   356.063 HEAT:  126.5025
 CYCLE:    15 TIME:   0.016 TIME LEFT:  2.00D  GRAD.:   287.024 HEAT:  108.7122
 CYCLE:    16 TIME:   0.000 TIME LEFT:  2.00D  GRAD.:   274.680 HEAT:  90.71876
 CYCLE:    17 TIME:   0.016 TIME LEFT:  2.00D  GRAD.:   253.664 HEAT:  75.19377
 CYCLE:    18 TIME:   0.000 TIME LEFT:  2.00D  GRAD.:   365.830 HEAT:  70.83781
 CYCLE:    19 TIME:   0.016 TIME LEFT:  2.00D  GRAD.:   320.111 HEAT:  59.98461
 CYCLE:    20 TIME:   0.004 TIME LEFT:  2.00D  GRAD.:   240.505 HEAT:  46.41084
 CYCLE:    21 TIME:   0.016 TIME LEFT:  2.00D  GRAD.:   151.580 HEAT:  31.82184
 CYCLE:    22 TIME:   0.012 TIME LEFT:  2.00D  GRAD.:   150.768 HEAT:  27.94274
 CYCLE:    23 TIME:   0.008 TIME LEFT:  2.00D  GRAD.:    89.581 HEAT:  22.49386
 CYCLE:    24 TIME:   0.000 TIME LEFT:  2.00D  GRAD.:   224.552 HEAT:  21.76595
 CYCLE:    25 TIME:   0.016 TIME LEFT:  2.00D  GRAD.:   124.694 HEAT:  12.94837
 CYCLE:    26 TIME:   0.000 TIME LEFT:  2.00D  GRAD.:   123.717 HEAT:  10.30782
 CYCLE:    27 TIME:   0.016 TIME LEFT:  2.00D  GRAD.:    75.492 HEAT:  5.451969
 CYCLE:    28 TIME:   0.000 TIME LEFT:  2.00D  GRAD.:   148.092 HEAT:  4.926092
 CYCLE:    29 TIME:   0.016 TIME LEFT:  2.00D  GRAD.:   137.876 HEAT:  1.832573
 CYCLE:    30 TIME:   0.000 TIME LEFT:  2.00D  GRAD.:    96.010 HEAT: -1.445706
 CYCLE:    31 TIME:   0.016 TIME LEFT:  2.00D  GRAD.:    64.879 HEAT: -3.179663
 CYCLE:    32 TIME:   0.000 TIME LEFT:  2.00D  GRAD.:    84.052 HEAT: -4.182709
 CYCLE:    33 TIME:   0.000 TIME LEFT:  2.00D  GRAD.:    59.998 HEAT: -5.777836
 CYCLE:    34 TIME:   0.016 TIME LEFT:  2.00D  GRAD.:    88.770 HEAT: -6.006868
 CYCLE:    35 TIME:   0.000 TIME LEFT:  2.00D  GRAD.:    40.445 HEAT: -8.315019
 CYCLE:    36 TIME:   0.016 TIME LEFT:  2.00D  GRAD.:    50.273 HEAT: -9.634468
 CYCLE:    37 TIME:   0.000 TIME LEFT:  2.00D  GRAD.:    51.157 HEAT: -12.11383
 CYCLE:    38 TIME:   0.016 TIME LEFT:  2.00D  GRAD.:    48.280 HEAT: -15.85050
 CYCLE:    39 TIME:   0.000 TIME LEFT:  2.00D  GRAD.:    73.495 HEAT: -22.05658
 CYCLE:    40 TIME:   0.016 TIME LEFT:  2.00D  GRAD.:    97.742 HEAT: -29.15365
 CYCLE:    41 TIME:   0.000 TIME LEFT:  2.00D  GRAD.:   116.659 HEAT: -37.32659
 CYCLE:    42 TIME:   0.016 TIME LEFT:  2.00D  GRAD.:   124.215 HEAT: -43.89165
 CYCLE:    43 TIME:   0.000 TIME LEFT:  2.00D  GRAD.:   157.341 HEAT: -45.65797
 CYCLE:    44 TIME:   0.016 TIME LEFT:  2.00D  GRAD.:   122.129 HEAT: -48.15631
 CYCLE:    45 TIME:   0.012 TIME LEFT:  2.00D  GRAD.:    97.681 HEAT: -50.92335
 CYCLE:    46 TIME:   0.008 TIME LEFT:  2.00D  GRAD.:    70.097 HEAT: -52.75664
 CYCLE:    47 TIME:   0.008 TIME LEFT:  2.00D  GRAD.:    67.500 HEAT: -53.70884
 CYCLE:    48 TIME:   0.000 TIME LEFT:  2.00D  GRAD.:    30.347 HEAT: -54.97795
 CYCLE:    49 TIME:   0.000 TIME LEFT:  2.00D  GRAD.:    37.916 HEAT: -55.80978
 CYCLE:    50 TIME:   0.016 TIME LEFT:  2.00D  GRAD.:    36.215 HEAT: -56.47332
 CYCLE:    51 TIME:   0.000 TIME LEFT:  2.00D  GRAD.:    33.024 HEAT: -56.88627
 CYCLE:    52 TIME:   0.016 TIME LEFT:  2.00D  GRAD.:    24.713 HEAT: -57.26158
 CYCLE:    53 TIME:   0.000 TIME LEFT:  2.00D  GRAD.:    20.552 HEAT: -57.76693
 CYCLE:    54 TIME:   0.000 TIME LEFT:  2.00D  GRAD.:    19.552 HEAT: -58.28998
 CYCLE:    55 TIME:   0.016 TIME LEFT:  2.00D  GRAD.:    18.525 HEAT: -58.61278
 CYCLE:    56 TIME:   0.000 TIME LEFT:  2.00D  GRAD.:    19.879 HEAT: -59.02097
 CYCLE:    57 TIME:   0.000 TIME LEFT:  2.00D  GRAD.:    18.503 HEAT: -59.41799
 CYCLE:    58 TIME:   0.016 TIME LEFT:  2.00D  GRAD.:    28.198 HEAT: -59.63361
 CYCLE:    59 TIME:   0.000 TIME LEFT:  2.00D  GRAD.:    28.316 HEAT: -59.80494
 CYCLE:    60 TIME:   0.000 TIME LEFT:  2.00D  GRAD.:    21.526 HEAT: -60.06577
 CYCLE:    61 TIME:   0.020 TIME LEFT:  2.00D  GRAD.:    13.912 HEAT: -60.26537
 CYCLE:    62 TIME:   0.000 TIME LEFT:  2.00D  GRAD.:    13.504 HEAT: -60.45351
 CYCLE:    63 TIME:   0.012 TIME LEFT:  2.00D  GRAD.:    17.456 HEAT: -60.63343
 CYCLE:    64 TIME:   0.000 TIME LEFT:  2.00D  GRAD.:    14.021 HEAT: -60.76496
 CYCLE:    65 TIME:   0.000 TIME LEFT:  2.00D  GRAD.:    11.765 HEAT: -60.92082
 CYCLE:    66 TIME:   0.020 TIME LEFT:  2.00D  GRAD.:    15.205 HEAT: -61.06302
 CYCLE:    67 TIME:   0.000 TIME LEFT:  2.00D  GRAD.:    12.061 HEAT: -61.22792
 CYCLE:    68 TIME:   0.000 TIME LEFT:  2.00D  GRAD.:    15.221 HEAT: -61.43416
 CYCLE:    69 TIME:   0.016 TIME LEFT:  2.00D  GRAD.:    19.390 HEAT: -61.59865
 CYCLE:    70 TIME:   0.000 TIME LEFT:  2.00D  GRAD.:    14.729 HEAT: -61.77178
 CYCLE:    71 TIME:   0.000 TIME LEFT:  2.00D  GRAD.:    11.406 HEAT: -61.92091
 CYCLE:    72 TIME:   0.016 TIME LEFT:  2.00D  GRAD.:    12.174 HEAT: -62.08134
 CYCLE:    73 TIME:   0.000 TIME LEFT:  2.00D  GRAD.:    11.992 HEAT: -62.22391
 CYCLE:    74 TIME:   0.012 TIME LEFT:  2.00D  GRAD.:    12.214 HEAT: -62.37827
 CYCLE:    75 TIME:   0.000 TIME LEFT:  2.00D  GRAD.:    10.610 HEAT: -62.51297
 CYCLE:    76 TIME:   0.000 TIME LEFT:  2.00D  GRAD.:     8.809 HEAT: -62.63172
 CYCLE:    77 TIME:   0.020 TIME LEFT:  2.00D  GRAD.:     8.839 HEAT: -62.73362
 CYCLE:    78 TIME:   0.000 TIME LEFT:  2.00D  GRAD.:     8.466 HEAT: -62.80617
 CYCLE:    79 TIME:   0.000 TIME LEFT:  2.00D  GRAD.:     6.539 HEAT: -62.85924
 CYCLE:    80 TIME:   0.016 TIME LEFT:  2.00D  GRAD.:     6.462 HEAT: -62.89628
 CYCLE:    81 TIME:   0.000 TIME LEFT:  2.00D  GRAD.:     5.862 HEAT: -62.93658
 CYCLE:    82 TIME:   0.008 TIME LEFT:  2.00D  GRAD.:     6.514 HEAT: -62.97172
 CYCLE:    83 TIME:   0.000 TIME LEFT:  2.00D  GRAD.:     5.760 HEAT: -63.00764
 CYCLE:    84 TIME:   0.016 TIME LEFT:  2.00D  GRAD.:     4.991 HEAT: -63.03443
 CYCLE:    85 TIME:   0.000 TIME LEFT:  2.00D  GRAD.:     3.687 HEAT: -63.05695
 CYCLE:    86 TIME:   0.016 TIME LEFT:  2.00D  GRAD.:     4.083 HEAT: -63.07756
 CYCLE:    87 TIME:   0.000 TIME LEFT:  2.00D  GRAD.:     4.799 HEAT: -63.09370
 CYCLE:    88 TIME:   0.000 TIME LEFT:  2.00D  GRAD.:     5.439 HEAT: -63.10826
 CYCLE:    89 TIME:   0.016 TIME LEFT:  2.00D  GRAD.:     4.885 HEAT: -63.12759
 CYCLE:    90 TIME:   0.000 TIME LEFT:  2.00D  GRAD.:     3.328 HEAT: -63.13804
 CYCLE:    91 TIME:   0.000 TIME LEFT:  2.00D  GRAD.:     1.774 HEAT: -63.14767
 CYCLE:    92 TIME:   0.020 TIME LEFT:  2.00D  GRAD.:     1.471 HEAT: -63.15145
 CYCLE:    93 TIME:   0.008 TIME LEFT:  2.00D  GRAD.:     1.597 HEAT: -63.15400
 CYCLE:    94 TIME:   0.008 TIME LEFT:  2.00D  GRAD.:     1.250 HEAT: -63.15613
 CYCLE:    95 TIME:   0.000 TIME LEFT:  2.00D  GRAD.:     1.242 HEAT: -63.15787
 CYCLE:    96 TIME:   0.008 TIME LEFT:  2.00D  GRAD.:     1.217 HEAT: -63.15990
 CYCLE:    97 TIME:   0.008 TIME LEFT:  2.00D  GRAD.:     1.263 HEAT: -63.16269
 CYCLE:    98 TIME:   0.000 TIME LEFT:  2.00D  GRAD.:     1.499 HEAT: -63.16543
 CYCLE:    99 TIME:   0.008 TIME LEFT:  2.00D  GRAD.:     1.736 HEAT: -63.16858
 CYCLE:   100 TIME:   0.008 TIME LEFT:  2.00D  GRAD.:     1.983 HEAT: -63.17183
 CYCLE:   101 TIME:   0.000 TIME LEFT:  2.00D  GRAD.:     2.290 HEAT: -63.17630
 CYCLE:   102 TIME:   0.016 TIME LEFT:  2.00D  GRAD.:     2.071 HEAT: -63.18070
 CYCLE:   103 TIME:   0.000 TIME LEFT:  2.00D  GRAD.:     4.337 HEAT: -63.19493
 CYCLE:   104 TIME:   0.000 TIME LEFT:  2.00D  GRAD.:     3.259 HEAT: -63.20221
 CYCLE:   105 TIME:   0.016 TIME LEFT:  2.00D  GRAD.:     3.750 HEAT: -63.21921
 CYCLE:   106 TIME:   0.016 TIME LEFT:  2.00D  GRAD.:     3.244 HEAT: -63.22864
 CYCLE:   107 TIME:   0.000 TIME LEFT:  2.00D  GRAD.:     3.386 HEAT: -63.24250
 CYCLE:   108 TIME:   0.016 TIME LEFT:  2.00D  GRAD.:     3.321 HEAT: -63.25190
 CYCLE:   109 TIME:   0.000 TIME LEFT:  2.00D  GRAD.:     5.952 HEAT: -63.27412
 CYCLE:   110 TIME:   0.016 TIME LEFT:  2.00D  GRAD.:     5.023 HEAT: -63.28667
 CYCLE:   111 TIME:   0.000 TIME LEFT:  2.00D  GRAD.:     6.255 HEAT: -63.30906
 CYCLE:   112 TIME:   0.016 TIME LEFT:  2.00D  GRAD.:     2.997 HEAT: -63.32897
 CYCLE:   113 TIME:   0.000 TIME LEFT:  2.00D  GRAD.:     2.608 HEAT: -63.33886
 CYCLE:   114 TIME:   0.016 TIME LEFT:  2.00D  GRAD.:     6.484 HEAT: -63.35652
 CYCLE:   115 TIME:   0.000 TIME LEFT:  2.00D  GRAD.:     6.582 HEAT: -63.35992
 CYCLE:   116 TIME:   0.016 TIME LEFT:  2.00D  GRAD.:     4.104 HEAT: -63.38067
 CYCLE:   117 TIME:   0.000 TIME LEFT:  2.00D  GRAD.:     4.597 HEAT: -63.39014
 CYCLE:   118 TIME:   0.016 TIME LEFT:  2.00D  GRAD.:     4.773 HEAT: -63.40520
 CYCLE:   119 TIME:   0.000 TIME LEFT:  2.00D  GRAD.:     5.866 HEAT: -63.41035
 CYCLE:   120 TIME:   0.000 TIME LEFT:  2.00D  GRAD.:     4.055 HEAT: -63.42179
 CYCLE:   121 TIME:   0.016 TIME LEFT:  2.00D  GRAD.:     2.565 HEAT: -63.43021
 CYCLE:   122 TIME:   0.000 TIME LEFT:  2.00D  GRAD.:     1.867 HEAT: -63.44059
 CYCLE:   123 TIME:   0.016 TIME LEFT:  2.00D  GRAD.:     4.941 HEAT: -63.45198
 CYCLE:   124 TIME:   0.000 TIME LEFT:  2.00D  GRAD.:     2.945 HEAT: -63.46566
 CYCLE:   125 TIME:   0.000 TIME LEFT:  2.00D  GRAD.:     2.694 HEAT: -63.48400
 CYCLE:   126 TIME:   0.016 TIME LEFT:  2.00D  GRAD.:     5.144 HEAT: -63.49938
 CYCLE:   127 TIME:   0.008 TIME LEFT:  2.00D  GRAD.:     4.074 HEAT: -63.51488
 CYCLE:   128 TIME:   0.000 TIME LEFT:  2.00D  GRAD.:     4.171 HEAT: -63.54217
 CYCLE:   129 TIME:   0.012 TIME LEFT:  2.00D  GRAD.:     7.095 HEAT: -63.54558
 CYCLE:   130 TIME:   0.008 TIME LEFT:  2.00D  GRAD.:     3.280 HEAT: -63.56841
 CYCLE:   131 TIME:   0.008 TIME LEFT:  2.00D  GRAD.:     3.308 HEAT: -63.57765
 CYCLE:   132 TIME:   0.000 TIME LEFT:  2.00D  GRAD.:     4.793 HEAT: -63.58760
 CYCLE:   133 TIME:   0.016 TIME LEFT:  2.00D  GRAD.:     2.635 HEAT: -63.59661
 CYCLE:   134 TIME:   0.000 TIME LEFT:  2.00D  GRAD.:     2.443 HEAT: -63.60585
 CYCLE:   135 TIME:   0.000 TIME LEFT:  2.00D  GRAD.:     2.418 HEAT: -63.61076
 CYCLE:   136 TIME:   0.016 TIME LEFT:  2.00D  GRAD.:     2.126 HEAT: -63.61363
 CYCLE:   137 TIME:   0.000 TIME LEFT:  2.00D  GRAD.:     1.400 HEAT: -63.61580
 CYCLE:   138 TIME:   0.000 TIME LEFT:  2.00D  GRAD.:     1.478 HEAT: -63.61832
 CYCLE:   139 TIME:   0.016 TIME LEFT:  2.00D  GRAD.:     1.103 HEAT: -63.61963
 CYCLE:   140 TIME:   0.000 TIME LEFT:  2.00D  GRAD.:     1.607 HEAT: -63.62106
 CYCLE:   141 TIME:   0.000 TIME LEFT:  2.00D  GRAD.:     0.926 HEAT: -63.62268

     GRADIENT =  0.92583 IS LESS THAN CUTOFF =  1.00000



 -------------------------------------------------------------------------------
 PM7
 temp



     GEOMETRY OPTIMISED USING EIGENVECTOR FOLLOWING (EF).     
     SCF FIELD WAS ACHIEVED                                   


                              PM7 CALCULATION
                                                       MOPAC2016 (Version: 21.051W)
                                                       Thu Apr 15 16:20:21 2021
                                                       No. of days remaining = 311




          FINAL HEAT OF FORMATION =        -63.62268 KCAL/MOL =    -266.19729 KJ/MOL


          TOTAL ENERGY            =      -2274.09751 EV
          ELECTRONIC ENERGY       =     -12260.76696 EV  POINT GROUP:     C1  
          CORE-CORE REPULSION     =       9986.66945 EV
          COSMO AREA              =        217.01 SQUARE ANGSTROMS
          COSMO VOLUME            =        233.28 CUBIC ANGSTROMS

          GRADIENT NORM           =          0.92583 = 0.18517 PER ATOM
          IONIZATION POTENTIAL    =          9.081198 EV
          HOMO LUMO ENERGIES (EV) =         -9.081  0.115
          NO. OF FILLED LEVELS    =         35
          MOLECULAR WEIGHT        =        180.2030

          MOLECULAR DIMENSIONS (Angstroms)

            Atom       Atom       Distance
            H    19    H     3     7.65820
            O    16    O    15     5.62591
            H     9    H     7     5.44803


          SCF CALCULATIONS        =        157
 
          WALL-CLOCK TIME         =          1.070 SECONDS
          COMPUTATION TIME        =          4.250 SECONDS




  ATOM    CHEMICAL      BOND LENGTH      BOND ANGLE     TWIST ANGLE 
 NUMBER    SYMBOL       (ANGSTROMS)      (DEGREES)       (DEGREES) 
   (I)                     NA:I           NB:NA:I       NC:NB:NA:I       NA    NB    NC 
     1       H         -1.11883691  *   -1.9449205  *    1.2525665  *     0     0     0
     2       C         -1.59995171  *   -0.6214472  *    2.8892725  *     0     0     0
     3       H         -2.48113360  *   -0.1429652  *    3.3319346  *     0     0     0
     4       C          0.57269380  *    0.4519960  *    0.9612146  *     0     0     0
     5       H          0.98764355  *   -0.0404968  *    1.8558346  *     0     0     0
     6       H          1.26352434  *    1.4220500  *   -0.8593083  *     0     0     0
     7       H          2.54630552  *    1.0106291  *    0.2827316  *     0     0     0
     8       C         -3.09284655  *   -1.0768694  *    0.9390819  *     0     0     0
     9       H         -3.14565385  *   -1.3723010  *   -0.1167972  *     0     0     0
    10       H         -3.65165462  *   -1.8299703  *    1.5090184  *     0     0     0
    11       H         -3.62624442  *   -0.1219945  *    1.0321306  *     0     0     0
    12       O         -0.62088840  *   -0.8595007  *    3.5504392  *     0     0     0
    13       C          2.42758171  *   -1.6750227  *   -0.2965895  *     0     0     0
    14       C         -0.52772102  *    1.4203586  *    1.1487115  *     0     0     0
    15       O          2.97251051  *   -2.5532245  *    0.2345164  *     0     0     0
    16       O         -0.88602397  *    2.4915516  *    1.4914926  *     0     0     0
    17       H         -1.13821386  *    0.0315972  *   -0.4768728  *     0     0     0
    18       C          1.32070298  *   -0.7785365  *   -2.2950282  *     0     0     0
    19       H          1.87948757  *   -0.1033271  *   -2.9634161  *     0     0     0
    20       H          1.41225913  *   -1.7904243  *   -2.7132896  *     0     0     0
    21       H          0.25744218  *   -0.5010911  *   -2.3620020  *     0     0     0
    22       C         -0.89088053  *    0.1019244  *    0.5867574  *     0     0     0
    23       C          1.55197649     117.2889094  *  163.4822332  *    22    16     6
    24       C          1.81468549  *   -0.6797932  *   -0.9011528  *     0     0     0
    25       C          1.55197649      26.5059303  * -148.1953427  *    24    16     1

                             CARTESIAN COORDINATES

   1    H       -1.118836907    -1.944920478     1.252566542
   2    C       -1.599951705    -0.621447163     2.889272499
   3    H       -2.481133602    -0.142965247     3.331934616
   4    C        0.572693796     0.451996013     0.961214593
   5    H        0.987643551    -0.040496752     1.855834632
   6    H        1.263524342     1.422049999    -0.859308333
   7    H        2.546305524     1.010629115     0.282731569
   8    C       -3.092846555    -1.076869372     0.939081924
   9    H       -3.145653847    -1.372300989    -0.116797223
  10    H       -3.651654621    -1.829970276     1.509018358
  11    H       -3.626244419    -0.121994471     1.032130636
  12    O       -0.620888400    -0.859500660     3.550439235
  13    C        2.427581710    -1.675022727    -0.296589479
  14    C       -0.527721015     1.420358589     1.148711453
  15    O        2.972510513    -2.553224482     0.234516401
  16    O       -0.886023973     2.491551576     1.491492645
  17    H       -1.138213855     0.031597185    -0.476872813
  18    C        1.320702977    -0.778536527    -2.295028204
  19    H        1.879487573    -0.103327092    -2.963416056
  20    H        1.412259133    -1.790424278    -2.713289620
  21    H        0.257442177    -0.501091076    -2.362002024
  22    C       -0.890880528     0.101924417     0.586757432
  23    C       -1.649000502    -0.970467779     1.413715784
  24    C        1.814685493    -0.679793243    -0.901152803
  25    C        1.585000266     0.649844915    -0.134381586


           Empirical Formula: C10 H12 O3  =    25 atoms



      MOLECULAR POINT GROUP   :   C1  


                  EIGENVALUES  
 -32.95595 -32.26133 -31.61915 -30.81683 -28.82844 -27.92542 -24.90952 -23.80333
 -23.06166 -21.48109 -20.07408 -18.65425 -17.80986 -17.19543 -16.54967 -16.25107
 -15.98317 -15.85476 -15.77028 -15.22574 -15.18858 -14.27663 -14.23766 -14.08704
 -13.83736 -13.73225 -13.67032 -13.34754 -13.00782 -12.65152 -12.52667 -11.40504
 -10.37550  -9.98124  -9.08120   0.11486   0.20679   0.39302   0.97489   2.00226
   2.55754   3.04020   3.04545   3.12442   3.59683   3.68011   3.80664   4.08280
   4.31397   4.66928   4.72453   4.97417   5.20230   5.20371   5.23636   5.34964
   5.39561   5.54606   5.57330   5.60612   5.78329   5.98341   6.38865   6.55209


              NET ATOMIC CHARGES AND DIPOLE CONTRIBUTIONS

  ATOM NO.   TYPE          CHARGE      No. of ELECS.   s-Pop       p-Pop       
    1          H           0.176221        0.8238     0.82378
    2          C           0.330848        3.6692     1.15334     2.51581
    3          H           0.119596        0.8804     0.88040
    4          C          -0.284778        4.2848     1.06941     3.21537
    5          H           0.201238        0.7988     0.79876
    6          H           0.151854        0.8481     0.84815
    7          H           0.152594        0.8474     0.84741
    8          C          -0.449474        4.4495     1.05355     3.39592
    9          H           0.154804        0.8452     0.84520
   10          H           0.152402        0.8476     0.84760
   11          H           0.156217        0.8438     0.84378
   12          O          -0.433296        6.4333     1.87748     4.55582
   13          C           0.448545        3.5515     1.14098     2.41047
   14          C           0.424256        3.5757     1.08787     2.48787
   15          O          -0.266788        6.2668     1.86864     4.39815
   16          O          -0.326943        6.3269     1.87261     4.45433
   17          H           0.184878        0.8151     0.81512
   18          C          -0.375785        4.3758     1.03919     3.33660
   19          H           0.152853        0.8471     0.84715
   20          H           0.144049        0.8560     0.85595
   21          H           0.148178        0.8518     0.85182
   22          C          -0.289474        4.2895     1.07156     3.21791
   23          C          -0.175055        4.1751     1.07195     3.10311
   24          C          -0.320137        4.3201     1.03002     3.29012
   25          C          -0.176804        4.1768     1.05026     3.12654
 DIPOLE           X         Y         Z       TOTAL
 POINT-CHG.    -2.348    -0.359    -3.460     4.197
 HYBRID         0.334    -0.506     0.259     0.659
 SUM           -2.014    -0.865    -3.201     3.879


          ATOMIC ORBITAL ELECTRON POPULATIONS

     Atom    s        px        py        pz   
    1  H   0.82378
    2  C   1.15334   0.89016   0.72530   0.90035
    3  H   0.88040
    4  C   1.06941   0.95726   1.14311   1.11499
    5  H   0.79876
    6  H   0.84815
    7  H   0.84741
    8  C   1.05355   1.03870   1.18363   1.17360
    9  H   0.84520
   10  H   0.84760
   11  H   0.84378
   12  O   1.87748   1.42440   1.44553   1.68589
   13  C   1.14098   0.89858   0.80084   0.71106
   14  C   1.08787   0.97043   0.81591   0.70153
   15  O   1.86864   1.62363   1.35056   1.42396
   16  O   1.87261   1.78847   1.27653   1.38933
   17  H   0.81512
   18  C   1.03919   1.15175   1.17332   1.01153
   19  H   0.84715
   20  H   0.85595
   21  H   0.85182
   22  C   1.07156   1.03443   1.06629   1.11719
   23  C   1.07195   1.00988   1.08423   1.00899
   24  C   1.03002   1.25841   1.00309   1.02862
   25  C   1.05026   1.08118   1.01196   1.03339

 **********************
 *                    *
 * JOB ENDED NORMALLY *
 *                    *
 **********************



 TOTAL JOB TIME:             1.07 SECONDS

 == MOPAC DONE ==
