 *******************************************************************************
 ** Site#: 36969        For non-commercial use only    Version 21.051W 64BITS **
 *******************************************************************************
 ** Cite this program as: MOPAC2016, Version: 21.051W, James J. P. Stewart,   **
 ** Stewart Computational Chemistry, web: HTTP://OpenMOPAC.net. Days left: 332**
 *******************************************************************************
 **                                                                           **
 **                                MOPAC2016                                  **
 **                                                                           **
 *******************************************************************************

                              PM7 CALCULATION RESULTS

 *******************************************************************************
 *  CALCULATION DONE:                                Thu Mar 25 14:24:11 2021  *
 *  PM7        - The PM7 Hamiltonian to be used
 *  1SCF       - DO 1 SCF AND THEN STOP 
 *  T=         - A TIME OF 172800.0 SECONDS REQUESTED
 *  DUMP=N     - RESTART FILE WRITTEN EVERY 7200.0 SECONDS REQUESTED
 *  RELSCF     - DEFAULT SCF CRITERION MULTIPLIED BY 0.0001
 *              (DEFAULT SCF CRITERION = 0.00010)
 *  GRADIENTS  - ALL GRADIENTS TO BE PRINTED
 *******************************************************************************
PM7 1SCF GRADIENTS RELSCF=0.0001
 Title: ASE calculation

   ATOM   CHEMICAL          X               Y               Z
  NUMBER   SYMBOL      (ANGSTROMS)     (ANGSTROMS)     (ANGSTROMS)
 
     1       C         -2.30314003  *  -0.49206893  *   0.79982258  *
     2       O         -1.72874300  *   1.68071222  *   0.05505570  *
     3       H         -3.01791660  *  -0.75428841  *   0.03290326  *
     4       H         -2.80009237  *  -0.03462459  *   1.64943354  *
     5       H         -1.77403149  *  -1.38032490  *   1.11813991  *
     6       H         -2.63023479  *   1.76807295  *  -0.30666768  *
     7       C         -0.02899833  *   0.53976139  *   1.06617847  *
     8       O         -1.33677259  *   0.56610560  *   0.25379293  *
     9       H          0.68037357  *  -0.17443657  *   0.68489747  *
    10       H         -0.27533343  *   0.31462741  *   2.09572736  *
    11       H          0.37475420  *   1.54768671  *   1.00733974  *
    12       H         -1.00597786  *   0.08102033  *  -0.67274843  *
    13       C          0.56013292  *   2.40628415  *  -2.25885690  *
    14       O          1.89600251  *   2.04644042  *  -1.95852286  *
    15       H          0.63265897  *   2.94916150  *  -3.20879787  *
    16       H          0.15092711  *   3.05683878  *  -1.47678664  *
    17       H         -0.05493921  *   1.50862482  *  -2.38138135  *
    18       H          1.91879894  *   1.59151252  *  -1.09293935  *
 


          CARTESIAN COORDINATES 

    NO.       ATOM           X           Y           Z

     1         C         -2.3031     -0.4921      0.7998
     2         O         -1.7287      1.6807      0.0551
     3         H         -3.0179     -0.7543      0.0329
     4         H         -2.8001     -0.0346      1.6494
     5         H         -1.7740     -1.3803      1.1181
     6         H         -2.6302      1.7681     -0.3067
     7         C         -0.0290      0.5398      1.0662
     8         O         -1.3368      0.5661      0.2538
     9         H          0.6804     -0.1744      0.6849
    10         H         -0.2753      0.3146      2.0957
    11         H          0.3748      1.5477      1.0073
    12         H         -1.0060      0.0810     -0.6727
    13         C          0.5601      2.4063     -2.2589
    14         O          1.8960      2.0464     -1.9585
    15         H          0.6327      2.9492     -3.2088
    16         H          0.1509      3.0568     -1.4768
    17         H         -0.0549      1.5086     -2.3814
    18         H          1.9188      1.5915     -1.0929

 General Reference for PM7:
 "Optimization of Parameters for Semiempirical Methods VI: More Modifications to the 
 NDDO Approximations and Re-optimization of Parameters", J. J. P. Stewart, J. Mol. Mod., 1:32, 19 (2013)
 https://link.springer.com/article/10.1007/s00894-012-1667-x

           Empirical Formula: C3 H12 O3  =    18 atoms



      MOLECULAR POINT GROUP   :   C1  


      RHF CALCULATION, NO. OF DOUBLY OCCUPIED LEVELS = 21

  SCF CRITERION =    0.1000E-07

 -------------------------------------------------------------------------------
 PM7 1SCF GRADIENTS RELSCF=0.0001
 Title: ASE calculation



     1SCF WAS SPECIFIED, SO BFGS WAS NOT USED                 
     SCF FIELD WAS ACHIEVED                                   


                              PM7 CALCULATION
                                                       MOPAC2016 (Version: 21.051W)
                                                       Thu Mar 25 14:24:11 2021
                                                       No. of days remaining = 332




          FINAL HEAT OF FORMATION =        -40.89918 KCAL/MOL =    -171.12218 KJ/MOL


          TOTAL ENERGY            =      -1411.50679 EV
          ELECTRONIC ENERGY       =      -5614.38406 EV  POINT GROUP:     C1  
          CORE-CORE REPULSION     =       4202.87727 EV
          COSMO AREA              =        152.78 SQUARE ANGSTROMS
          COSMO VOLUME            =        142.93 CUBIC ANGSTROMS

          GRADIENT NORM           =        449.96749 = 106.05836 PER ATOM
          IONIZATION POTENTIAL    =         10.235173 EV
          HOMO LUMO ENERGIES (EV) =        -10.235  2.393
          NO. OF FILLED LEVELS    =         21
          MOLECULAR WEIGHT        =         96.1260

          MOLECULAR DIMENSIONS (Angstroms)

            Atom       Atom       Distance
            H    15    H     4     6.65501
            H     9    H     6     3.96282
            H    11    H     3     3.14579


          SCF CALCULATIONS        =          1
 
          WALL-CLOCK TIME         =          0.297 SECONDS
          COMPUTATION TIME        =          0.078 SECONDS

          LARGEST ATOMIC GRADIENTS

          Atom     Label                     Cartesian Gradients           Cartesian Coordinates       |Gradient|
                                           X          Y          Z        X          Y          Z

             2       O                 104.645   -296.002     54.183   -1.72874    1.68071    0.05506    318.596
             8       O                -104.100    295.432    -53.210   -1.33677    0.56611    0.25379    317.724
             1       C                  -1.471     -0.466      1.479   -2.30314   -0.49207    0.79982      2.137
             9       H                   0.450      1.271      0.207    0.68037   -0.17444    0.68490      1.365
            14       O                   1.328      0.119     -0.260    1.89600    2.04644   -1.95852      1.358
             3       H                   0.827     -0.712     -0.734   -3.01792   -0.75429    0.03290      1.315
             6       H                   0.762      1.003     -0.160   -2.63023    1.76807   -0.30667      1.270
            13       C                   0.853     -0.261      0.647    0.56013    2.40628   -2.25886      1.102
             7       C                  -0.915      0.136     -0.582   -0.02900    0.53976    1.06618      1.093
            10       H                  -0.228     -0.984     -0.411   -0.27533    0.31463    2.09573      1.090



       FINAL  POINT  AND  DERIVATIVES

   PARAMETER     ATOM    TYPE            VALUE        GRADIENT
      1          1  C    CARTESIAN X    -2.303140     -1.470645  KCAL/ANGSTROM
      2          1  C    CARTESIAN Y    -0.492069     -0.466480  KCAL/ANGSTROM
      3          1  C    CARTESIAN Z     0.799823      1.478961  KCAL/ANGSTROM
      4          2  O    CARTESIAN X    -1.728743    104.644584  KCAL/ANGSTROM
      5          2  O    CARTESIAN Y     1.680712   -296.001918  KCAL/ANGSTROM
      6          2  O    CARTESIAN Z     0.055056     54.183137  KCAL/ANGSTROM
      7          3  H    CARTESIAN X    -3.017917      0.826792  KCAL/ANGSTROM
      8          3  H    CARTESIAN Y    -0.754288     -0.711615  KCAL/ANGSTROM
      9          3  H    CARTESIAN Z     0.032903     -0.733627  KCAL/ANGSTROM
     10          4  H    CARTESIAN X    -2.800092     -0.334981  KCAL/ANGSTROM
     11          4  H    CARTESIAN Y    -0.034625      0.831291  KCAL/ANGSTROM
     12          4  H    CARTESIAN Z     1.649434      0.456909  KCAL/ANGSTROM
     13          5  H    CARTESIAN X    -1.774031      0.254889  KCAL/ANGSTROM
     14          5  H    CARTESIAN Y    -1.380325     -0.408495  KCAL/ANGSTROM
     15          5  H    CARTESIAN Z     1.118140     -0.050639  KCAL/ANGSTROM
     16          6  H    CARTESIAN X    -2.630235      0.761644  KCAL/ANGSTROM
     17          6  H    CARTESIAN Y     1.768073      1.003239  KCAL/ANGSTROM
     18          6  H    CARTESIAN Z    -0.306668     -0.159504  KCAL/ANGSTROM
     19          7  C    CARTESIAN X    -0.028998     -0.915237  KCAL/ANGSTROM
     20          7  C    CARTESIAN Y     0.539761      0.135665  KCAL/ANGSTROM
     21          7  C    CARTESIAN Z     1.066178     -0.582255  KCAL/ANGSTROM
     22          8  O    CARTESIAN X    -1.336773   -104.099534  KCAL/ANGSTROM
     23          8  O    CARTESIAN Y     0.566106    295.432277  KCAL/ANGSTROM
     24          8  O    CARTESIAN Z     0.253793    -53.210083  KCAL/ANGSTROM
     25          9  H    CARTESIAN X     0.680374      0.449861  KCAL/ANGSTROM
     26          9  H    CARTESIAN Y    -0.174437      1.271486  KCAL/ANGSTROM
     27          9  H    CARTESIAN Z     0.684897      0.206937  KCAL/ANGSTROM
     28         10  H    CARTESIAN X    -0.275333     -0.228101  KCAL/ANGSTROM
     29         10  H    CARTESIAN Y     0.314627     -0.983779  KCAL/ANGSTROM
     30         10  H    CARTESIAN Z     2.095727     -0.410581  KCAL/ANGSTROM
     31         11  H    CARTESIAN X     0.374754     -0.562143  KCAL/ANGSTROM
     32         11  H    CARTESIAN Y     1.547687      0.250788  KCAL/ANGSTROM
     33         11  H    CARTESIAN Z     1.007340     -0.687627  KCAL/ANGSTROM
     34         12  H    CARTESIAN X    -1.005978      0.183686  KCAL/ANGSTROM
     35         12  H    CARTESIAN Y     0.081020     -0.298552  KCAL/ANGSTROM
     36         12  H    CARTESIAN Z    -0.672748     -0.335266  KCAL/ANGSTROM
     37         13  C    CARTESIAN X     0.560133      0.852969  KCAL/ANGSTROM
     38         13  C    CARTESIAN Y     2.406284     -0.260950  KCAL/ANGSTROM
     39         13  C    CARTESIAN Z    -2.258857      0.647239  KCAL/ANGSTROM
     40         14  O    CARTESIAN X     1.896003      1.327597  KCAL/ANGSTROM
     41         14  O    CARTESIAN Y     2.046440      0.119457  KCAL/ANGSTROM
     42         14  O    CARTESIAN Z    -1.958523     -0.260402  KCAL/ANGSTROM
     43         15  H    CARTESIAN X     0.632659     -0.852589  KCAL/ANGSTROM
     44         15  H    CARTESIAN Y     2.949162     -0.050379  KCAL/ANGSTROM
     45         15  H    CARTESIAN Z    -3.208798     -0.155004  KCAL/ANGSTROM
     46         16  H    CARTESIAN X     0.150927     -0.036545  KCAL/ANGSTROM
     47         16  H    CARTESIAN Y     3.056839      0.422449  KCAL/ANGSTROM
     48         16  H    CARTESIAN Z    -1.476787     -0.006483  KCAL/ANGSTROM
     49         17  H    CARTESIAN X    -0.054939     -0.238748  KCAL/ANGSTROM
     50         17  H    CARTESIAN Y     1.508625     -0.346902  KCAL/ANGSTROM
     51         17  H    CARTESIAN Z    -2.381381     -0.213909  KCAL/ANGSTROM
     52         18  H    CARTESIAN X     1.918799     -0.563524  KCAL/ANGSTROM
     53         18  H    CARTESIAN Y     1.591513      0.062424  KCAL/ANGSTROM
     54         18  H    CARTESIAN Z    -1.092939     -0.167794  KCAL/ANGSTROM




   ATOM   CHEMICAL          X               Y               Z
  NUMBER   SYMBOL      (ANGSTROMS)     (ANGSTROMS)     (ANGSTROMS)
 
     1       C         -2.30314003  *  -0.49206893  *   0.79982258  *
     2       O         -1.72874300  *   1.68071222  *   0.05505570  *
     3       H         -3.01791660  *  -0.75428841  *   0.03290326  *
     4       H         -2.80009237  *  -0.03462459  *   1.64943354  *
     5       H         -1.77403149  *  -1.38032490  *   1.11813991  *
     6       H         -2.63023479  *   1.76807295  *  -0.30666768  *
     7       C         -0.02899833  *   0.53976139  *   1.06617847  *
     8       O         -1.33677259  *   0.56610560  *   0.25379293  *
     9       H          0.68037357  *  -0.17443657  *   0.68489747  *
    10       H         -0.27533343  *   0.31462741  *   2.09572736  *
    11       H          0.37475420  *   1.54768671  *   1.00733974  *
    12       H         -1.00597786  *   0.08102033  *  -0.67274843  *
    13       C          0.56013292  *   2.40628415  *  -2.25885690  *
    14       O          1.89600251  *   2.04644042  *  -1.95852286  *
    15       H          0.63265897  *   2.94916150  *  -3.20879787  *
    16       H          0.15092711  *   3.05683878  *  -1.47678664  *
    17       H         -0.05493921  *   1.50862482  *  -2.38138135  *
    18       H          1.91879894  *   1.59151252  *  -1.09293935  *

                             CARTESIAN COORDINATES

   1    C       -2.303140034    -0.492068929     0.799822584
   2    O       -1.728742998     1.680712223     0.055055696
   3    H       -3.017916598    -0.754288413     0.032903257
   4    H       -2.800092369    -0.034624593     1.649433539
   5    H       -1.774031491    -1.380324899     1.118139908
   6    H       -2.630234794     1.768072948    -0.306667684
   7    C       -0.028998330     0.539761391     1.066178466
   8    O       -1.336772593     0.566105602     0.253792926
   9    H        0.680373568    -0.174436571     0.684897474
  10    H       -0.275333425     0.314627415     2.095727356
  11    H        0.374754204     1.547686708     1.007339736
  12    H       -1.005977855     0.081020326    -0.672748431
  13    C        0.560132919     2.406284154    -2.258856903
  14    O        1.896002505     2.046440419    -1.958522860
  15    H        0.632658966     2.949161505    -3.208797873
  16    H        0.150927111     3.056838781    -1.476786638
  17    H       -0.054939210     1.508624824    -2.381381347
  18    H        1.918798935     1.591512525    -1.092939347


           Empirical Formula: C3 H12 O3  =    18 atoms



      MOLECULAR POINT GROUP   :   C1  


                  EIGENVALUES  
 -33.41821 -29.52463 -29.23307 -24.71752 -24.21409 -23.88842 -20.56414 -18.53581
 -17.39680 -17.19452 -14.99732 -14.57249 -14.36941 -14.07494 -13.82834 -13.38846
 -12.95764 -12.22903 -11.30388 -10.58710 -10.23517   2.39349   2.96651   3.03670
   3.63933   5.44855   5.47192   5.56109   5.62185   5.68788   5.76136   6.01153
   6.02532   6.41220   6.78711   6.98071


              NET ATOMIC CHARGES AND DIPOLE CONTRIBUTIONS

  ATOM NO.   TYPE          CHARGE      No. of ELECS.   s-Pop       p-Pop       
    1          C          -0.695693        4.6957     1.10687     3.58882
    2          O          -0.698835        6.6988     1.84843     4.85041
    3          H           0.145817        0.8542     0.85418
    4          H           0.164178        0.8358     0.83582
    5          H           0.161958        0.8380     0.83804
    6          H           0.352238        0.6478     0.64776
    7          C          -0.654205        4.6542     1.10311     3.55110
    8          O           0.740551        5.2594     1.98994     3.26951
    9          H           0.144255        0.8557     0.85575
   10          H           0.161720        0.8383     0.83828
   11          H           0.167168        0.8328     0.83283
   12          H           0.011073        0.9889     0.98893
   13          C          -0.160089        4.1601     1.07848     3.08161
   14          O          -0.526405        6.5264     1.85302     4.67339
   15          H           0.141328        0.8587     0.85867
   16          H           0.128951        0.8710     0.87105
   17          H           0.111710        0.8883     0.88829
   18          H           0.304280        0.6957     0.69572
 DIPOLE           X         Y         Z       TOTAL
 POINT-CHG.    -2.739    -0.941    -0.034     2.896
 HYBRID        -0.007    -0.535     0.345     0.637
 SUM           -2.746    -1.476     0.312     3.133


          ATOMIC ORBITAL ELECTRON POPULATIONS

     Atom    s        px        py        pz   
    1  C   1.10687   1.19394   1.19737   1.19751
    2  O   1.84843   1.49057   1.47011   1.88973
    3  H   0.85418
    4  H   0.83582
    5  H   0.83804
    6  H   0.64776
    7  C   1.10311   1.16614   1.19223   1.19273
    8  O   1.98994   1.09505   0.97647   1.19799
    9  H   0.85575
   10  H   0.83828
   11  H   0.83283
   12  H   0.98893
   13  C   1.07848   0.84360   1.10846   1.12955
   14  O   1.85302   1.32953   1.83728   1.50658
   15  H   0.85867
   16  H   0.87105
   17  H   0.88829
   18  H   0.69572

 **********************
 *                    *
 * JOB ENDED NORMALLY *
 *                    *
 **********************



 TOTAL JOB TIME:             0.59 SECONDS

 == MOPAC DONE ==
