 *******************************************************************************
 ** Site#: 36969        For non-commercial use only    Version 21.051W 64BITS **
 *******************************************************************************
 ** Cite this program as: MOPAC2016, Version: 21.051W, James J. P. Stewart,   **
 ** Stewart Computational Chemistry, web: HTTP://OpenMOPAC.net. Days left: 313**
 *******************************************************************************
 **                                                                           **
 **                                MOPAC2016                                  **
 **                                                                           **
 *******************************************************************************

                              PM7 CALCULATION RESULTS

 *******************************************************************************
 *  CALCULATION DONE:                                Tue Apr 13 22:04:54 2021  *
 *  PM7        - The PM7 Hamiltonian to be used
 *  1SCF       - DO 1 SCF AND THEN STOP 
 *  T=         - A TIME OF 172800.0 SECONDS REQUESTED
 *  DUMP=N     - RESTART FILE WRITTEN EVERY 7200.0 SECONDS REQUESTED
 *  RELSCF     - DEFAULT SCF CRITERION MULTIPLIED BY 0.0001
 *              (DEFAULT SCF CRITERION = 0.00010)
 *  GRADIENTS  - ALL GRADIENTS TO BE PRINTED
 *******************************************************************************
PM7 1SCF GRADIENTS RELSCF=0.0001
 Title: ASE calculation

   ATOM   CHEMICAL          X               Y               Z
  NUMBER   SYMBOL      (ANGSTROMS)     (ANGSTROMS)     (ANGSTROMS)
 
     1       C         -1.19229935  *  -0.65189750  *  -0.50232706  *
     2       H         -0.75462093  *   0.15409750  *  -1.05335570  *
     3       C         -0.63520388  *  -1.06385912  *   0.66229836  *
     4       H         -1.07296460  *  -1.86989921  *   1.21329243  *
     5       C          0.63219042  *  -0.36960533  *   1.19457963  *
     6       H          1.07197682  *  -0.69494228  *   2.11412663  *
     7       C          1.19229935  *   0.65189750  *   0.50232706  *
     8       H          0.75703573  *   0.98166513  *  -0.41785524  *
     9       H          2.07289877  *   1.13036624  *   0.87723144  *
    10       C         -2.45969365  *  -1.34615129  *  -1.03460833  *
    11       H         -2.75451154  *  -0.89170954  *  -1.95736370  *
    12       H         -2.25636109  *  -2.38395599  *  -1.19715526  *
    13       H         -3.24893969  *  -1.24507841  *  -0.31920141  *
    14       O         -0.00009374  *   1.53043081  *  -1.65471210  *
    15       C         -0.64604376  *   1.67848186  *  -0.38907477  *
    16       C          0.64592520  *   0.25714187  *  -1.70373465  *
    17       C         -0.37039478  *   0.40751813  *   0.37686334  *
    18       O         -1.24536791  *   2.67444444  *  -0.14323165  *
    19       C          0.37039478  *  -0.40751813  *  -0.37686334  *
    20       O          1.24520811  *  -0.06552485  *  -2.67754978  *
    21       H          0.75941848  *  -1.39447920  *  -0.16826817  *
    22       C         -0.92430073  *   0.22061243  *   1.80154516  *
    23       H         -0.53761435  *   0.98876630  *   2.43815499  *
    24       H         -1.99247410  *   0.27972345  *   1.77958851  *
    25       H         -0.62780052  *  -0.73652674  *   2.17680213  *
 


          CARTESIAN COORDINATES 

    NO.       ATOM           X           Y           Z

     1         C         -1.1923     -0.6519     -0.5023
     2         H         -0.7546      0.1541     -1.0534
     3         C         -0.6352     -1.0639      0.6623
     4         H         -1.0730     -1.8699      1.2133
     5         C          0.6322     -0.3696      1.1946
     6         H          1.0720     -0.6949      2.1141
     7         C          1.1923      0.6519      0.5023
     8         H          0.7570      0.9817     -0.4179
     9         H          2.0729      1.1304      0.8772
    10         C         -2.4597     -1.3462     -1.0346
    11         H         -2.7545     -0.8917     -1.9574
    12         H         -2.2564     -2.3840     -1.1972
    13         H         -3.2489     -1.2451     -0.3192
    14         O         -0.0001      1.5304     -1.6547
    15         C         -0.6460      1.6785     -0.3891
    16         C          0.6459      0.2571     -1.7037
    17         C         -0.3704      0.4075      0.3769
    18         O         -1.2454      2.6744     -0.1432
    19         C          0.3704     -0.4075     -0.3769
    20         O          1.2452     -0.0655     -2.6775
    21         H          0.7594     -1.3945     -0.1683
    22         C         -0.9243      0.2206      1.8015
    23         H         -0.5376      0.9888      2.4382
    24         H         -1.9925      0.2797      1.7796
    25         H         -0.6278     -0.7365      2.1768

 General Reference for PM7:
 "Optimization of Parameters for Semiempirical Methods VI: More Modifications to the 
 NDDO Approximations and Re-optimization of Parameters", J. J. P. Stewart, J. Mol. Mod., 1:32, 19 (2013)
 https://link.springer.com/article/10.1007/s00894-012-1667-x

           Empirical Formula: C10 H12 O3  =    25 atoms



      MOLECULAR POINT GROUP   :   C1  


      RHF CALCULATION, NO. OF DOUBLY OCCUPIED LEVELS = 35

  SCF CRITERION =    0.1000E-07


 ALL CONVERGERS ARE NOW FORCED ON
 SHIFT=10, PULAY ON, CAMP-KING ON
 AND ITERATION COUNTER RESET



 -------------------------------------------------------------------------------
 PM7 1SCF GRADIENTS RELSCF=0.0001
 Title: ASE calculation



     1SCF WAS SPECIFIED, SO BFGS WAS NOT USED                 
     SCF FIELD WAS ACHIEVED                                   


                              PM7 CALCULATION
                                                       MOPAC2016 (Version: 21.051W)
                                                       Tue Apr 13 22:04:54 2021
                                                       No. of days remaining = 313




          FINAL HEAT OF FORMATION =        994.36691 KCAL/MOL =    4160.43114 KJ/MOL


          TOTAL ENERGY            =      -2228.21921 EV
          ELECTRONIC ENERGY       =     -14243.11888 EV  POINT GROUP:     C1  
          CORE-CORE REPULSION     =      12014.89967 EV
          COSMO AREA              =        178.97 SQUARE ANGSTROMS
          COSMO VOLUME            =        189.30 CUBIC ANGSTROMS

          GRADIENT NORM           =       1293.36320 = 258.67264 PER ATOM
          IONIZATION POTENTIAL    =          7.529875 EV
          HOMO LUMO ENERGIES (EV) =         -7.530 -0.799
          NO. OF FILLED LEVELS    =         35
          MOLECULAR WEIGHT        =        180.2030

          MOLECULAR DIMENSIONS (Angstroms)

            Atom       Atom       Distance
            H    11    H     9     5.95211
            H    24    O    20     5.50626
            H     4    O    18     4.63817


          SCF CALCULATIONS        =          1
 
          WALL-CLOCK TIME         =          0.398 SECONDS
          COMPUTATION TIME        =          1.359 SECONDS

          LARGEST ATOMIC GRADIENTS

          Atom     Label                     Cartesian Gradients           Cartesian Coordinates       |Gradient|
                                           X          Y          Z        X          Y          Z

            19       C                -412.968    271.763    413.358    0.37039   -0.40752   -0.37686    644.409
            17       C                 279.264   -426.539   -297.747   -0.37039    0.40752    0.37686    590.405
             3       C                 170.739    330.876   -139.356   -0.63520   -1.06386    0.66230    397.556
             5       C                -202.671    150.378   -300.162    0.63219   -0.36961    1.19458    392.156
             1       C                 298.778    161.471    161.712   -1.19230   -0.65190   -0.50233    376.154
             7       C                -272.284   -136.458    -30.361    1.19230    0.65190    0.50233    306.074
             2       H                 224.909     20.193    178.670   -0.75462    0.15410   -1.05336    287.950
             8       H                -206.877   -198.152    -12.361    0.75704    0.98167   -0.41786    286.732
            22       C                 160.809   -146.663   -102.408   -0.92430    0.22061    1.80155    240.534
            16       C                 -87.949     47.035    185.874    0.64593    0.25714   -1.70373    210.942
            15       C                 100.381   -152.334     -3.917   -0.64604    1.67848   -0.38907    182.476
            21       H                 -92.988     86.121     94.427    0.75942   -1.39448   -0.16827    158.051
            25       H                  44.384     32.977   -142.592   -0.62780   -0.73653    2.17680    152.938
            14       O                  13.508    -46.512     42.317   -0.00009    1.53043   -1.65471     64.316
            10       C                 -43.186    -21.586    -12.937   -2.45969   -1.34615   -1.03461     49.984



       FINAL  POINT  AND  DERIVATIVES

   PARAMETER     ATOM    TYPE            VALUE        GRADIENT
      1          1  C    CARTESIAN X    -1.192299    298.777507  KCAL/ANGSTROM
      2          1  C    CARTESIAN Y    -0.651898    161.471251  KCAL/ANGSTROM
      3          1  C    CARTESIAN Z    -0.502327    161.711730  KCAL/ANGSTROM
      4          2  H    CARTESIAN X    -0.754621    224.909432  KCAL/ANGSTROM
      5          2  H    CARTESIAN Y     0.154098     20.193236  KCAL/ANGSTROM
      6          2  H    CARTESIAN Z    -1.053356    178.670223  KCAL/ANGSTROM
      7          3  C    CARTESIAN X    -0.635204    170.739181  KCAL/ANGSTROM
      8          3  C    CARTESIAN Y    -1.063859    330.876025  KCAL/ANGSTROM
      9          3  C    CARTESIAN Z     0.662298   -139.355916  KCAL/ANGSTROM
     10          4  H    CARTESIAN X    -1.072965      4.791487  KCAL/ANGSTROM
     11          4  H    CARTESIAN Y    -1.869899     41.386429  KCAL/ANGSTROM
     12          4  H    CARTESIAN Z     1.213292     -1.137228  KCAL/ANGSTROM
     13          5  C    CARTESIAN X     0.632190   -202.671216  KCAL/ANGSTROM
     14          5  C    CARTESIAN Y    -0.369605    150.377928  KCAL/ANGSTROM
     15          5  C    CARTESIAN Z     1.194580   -300.162361  KCAL/ANGSTROM
     16          6  H    CARTESIAN X     1.071977    -18.895122  KCAL/ANGSTROM
     17          6  H    CARTESIAN Y    -0.694942     11.040344  KCAL/ANGSTROM
     18          6  H    CARTESIAN Z     2.114127    -11.631686  KCAL/ANGSTROM
     19          7  C    CARTESIAN X     1.192299   -272.284045  KCAL/ANGSTROM
     20          7  C    CARTESIAN Y     0.651898   -136.458193  KCAL/ANGSTROM
     21          7  C    CARTESIAN Z     0.502327    -30.360920  KCAL/ANGSTROM
     22          8  H    CARTESIAN X     0.757036   -206.876791  KCAL/ANGSTROM
     23          8  H    CARTESIAN Y     0.981665   -198.152268  KCAL/ANGSTROM
     24          8  H    CARTESIAN Z    -0.417855    -12.360838  KCAL/ANGSTROM
     25          9  H    CARTESIAN X     2.072899    -11.841197  KCAL/ANGSTROM
     26          9  H    CARTESIAN Y     1.130366     -0.980440  KCAL/ANGSTROM
     27          9  H    CARTESIAN Z     0.877231      8.339607  KCAL/ANGSTROM
     28         10  C    CARTESIAN X    -2.459694    -43.186258  KCAL/ANGSTROM
     29         10  C    CARTESIAN Y    -1.346151    -21.586128  KCAL/ANGSTROM
     30         10  C    CARTESIAN Z    -1.034608    -12.937079  KCAL/ANGSTROM
     31         11  H    CARTESIAN X    -2.754512      7.621271  KCAL/ANGSTROM
     32         11  H    CARTESIAN Y    -0.891710     -4.735770  KCAL/ANGSTROM
     33         11  H    CARTESIAN Z    -1.957364     14.887011  KCAL/ANGSTROM
     34         12  H    CARTESIAN X    -2.256361     -0.025685  KCAL/ANGSTROM
     35         12  H    CARTESIAN Y    -2.383956     16.732404  KCAL/ANGSTROM
     36         12  H    CARTESIAN Z    -1.197155      4.659496  KCAL/ANGSTROM
     37         13  H    CARTESIAN X    -3.248940     13.895194  KCAL/ANGSTROM
     38         13  H    CARTESIAN Y    -1.245078     -1.016033  KCAL/ANGSTROM
     39         13  H    CARTESIAN Z    -0.319201     -8.698634  KCAL/ANGSTROM
     40         14  O    CARTESIAN X    -0.000094     13.507738  KCAL/ANGSTROM
     41         14  O    CARTESIAN Y     1.530431    -46.512097  KCAL/ANGSTROM
     42         14  O    CARTESIAN Z    -1.654712     42.317095  KCAL/ANGSTROM
     43         15  C    CARTESIAN X    -0.646044    100.380593  KCAL/ANGSTROM
     44         15  C    CARTESIAN Y     1.678482   -152.334181  KCAL/ANGSTROM
     45         15  C    CARTESIAN Z    -0.389075     -3.917062  KCAL/ANGSTROM
     46         16  C    CARTESIAN X     0.645925    -87.948765  KCAL/ANGSTROM
     47         16  C    CARTESIAN Y     0.257142     47.035066  KCAL/ANGSTROM
     48         16  C    CARTESIAN Z    -1.703735    185.873875  KCAL/ANGSTROM
     49         17  C    CARTESIAN X    -0.370395    279.264349  KCAL/ANGSTROM
     50         17  C    CARTESIAN Y     0.407518   -426.539288  KCAL/ANGSTROM
     51         17  C    CARTESIAN Z     0.376863   -297.747148  KCAL/ANGSTROM
     52         18  O    CARTESIAN X    -1.245368     -5.626702  KCAL/ANGSTROM
     53         18  O    CARTESIAN Y     2.674444      7.860391  KCAL/ANGSTROM
     54         18  O    CARTESIAN Z    -0.143232      0.995685  KCAL/ANGSTROM
     55         19  C    CARTESIAN X     0.370395   -412.968407  KCAL/ANGSTROM
     56         19  C    CARTESIAN Y    -0.407518    271.763400  KCAL/ANGSTROM
     57         19  C    CARTESIAN Z    -0.376863    413.357854  KCAL/ANGSTROM
     58         20  O    CARTESIAN X     1.245208      3.108629  KCAL/ANGSTROM
     59         20  O    CARTESIAN Y    -0.065525     -5.760906  KCAL/ANGSTROM
     60         20  O    CARTESIAN Z    -2.677550     -3.369851  KCAL/ANGSTROM
     61         21  H    CARTESIAN X     0.759418    -92.987716  KCAL/ANGSTROM
     62         21  H    CARTESIAN Y    -1.394479     86.120500  KCAL/ANGSTROM
     63         21  H    CARTESIAN Z    -0.168268     94.427462  KCAL/ANGSTROM
     64         22  C    CARTESIAN X    -0.924301    160.808779  KCAL/ANGSTROM
     65         22  C    CARTESIAN Y     0.220612   -146.662650  KCAL/ANGSTROM
     66         22  C    CARTESIAN Z     1.801545   -102.407841  KCAL/ANGSTROM
     67         23  H    CARTESIAN X    -0.537614      0.774410  KCAL/ANGSTROM
     68         23  H    CARTESIAN Y     0.988766    -22.693394  KCAL/ANGSTROM
     69         23  H    CARTESIAN Z     2.438155    -24.506265  KCAL/ANGSTROM
     70         24  H    CARTESIAN X    -1.992474     32.349297  KCAL/ANGSTROM
     71         24  H    CARTESIAN Y     0.279723    -14.402701  KCAL/ANGSTROM
     72         24  H    CARTESIAN Z     1.779589    -14.055283  KCAL/ANGSTROM
     73         25  H    CARTESIAN X    -0.627801     44.384031  KCAL/ANGSTROM
     74         25  H    CARTESIAN Y    -0.736527     32.977066  KCAL/ANGSTROM
     75         25  H    CARTESIAN Z     2.176802   -142.591931  KCAL/ANGSTROM




   ATOM   CHEMICAL          X               Y               Z
  NUMBER   SYMBOL      (ANGSTROMS)     (ANGSTROMS)     (ANGSTROMS)
 
     1       C         -1.19229935  *  -0.65189750  *  -0.50232706  *
     2       H         -0.75462093  *   0.15409750  *  -1.05335570  *
     3       C         -0.63520388  *  -1.06385912  *   0.66229836  *
     4       H         -1.07296460  *  -1.86989921  *   1.21329243  *
     5       C          0.63219042  *  -0.36960533  *   1.19457963  *
     6       H          1.07197682  *  -0.69494228  *   2.11412663  *
     7       C          1.19229935  *   0.65189750  *   0.50232706  *
     8       H          0.75703573  *   0.98166513  *  -0.41785524  *
     9       H          2.07289877  *   1.13036624  *   0.87723144  *
    10       C         -2.45969365  *  -1.34615129  *  -1.03460833  *
    11       H         -2.75451154  *  -0.89170954  *  -1.95736370  *
    12       H         -2.25636109  *  -2.38395599  *  -1.19715526  *
    13       H         -3.24893969  *  -1.24507841  *  -0.31920141  *
    14       O         -0.00009374  *   1.53043081  *  -1.65471210  *
    15       C         -0.64604376  *   1.67848186  *  -0.38907477  *
    16       C          0.64592520  *   0.25714187  *  -1.70373465  *
    17       C         -0.37039478  *   0.40751813  *   0.37686334  *
    18       O         -1.24536791  *   2.67444444  *  -0.14323165  *
    19       C          0.37039478  *  -0.40751813  *  -0.37686334  *
    20       O          1.24520811  *  -0.06552485  *  -2.67754978  *
    21       H          0.75941848  *  -1.39447920  *  -0.16826817  *
    22       C         -0.92430073  *   0.22061243  *   1.80154516  *
    23       H         -0.53761435  *   0.98876630  *   2.43815499  *
    24       H         -1.99247410  *   0.27972345  *   1.77958851  *
    25       H         -0.62780052  *  -0.73652674  *   2.17680213  *

                             CARTESIAN COORDINATES

   1    C       -1.192299349    -0.651897501    -0.502327060
   2    H       -0.754620930     0.154097502    -1.053355697
   3    C       -0.635203879    -1.063859122     0.662298357
   4    H       -1.072964595    -1.869899206     1.213292430
   5    C        0.632190425    -0.369605328     1.194579625
   6    H        1.071976816    -0.694942282     2.114126631
   7    C        1.192299349     0.651897501     0.502327060
   8    H        0.757035730     0.981665135    -0.417855237
   9    H        2.072898766     1.130366237     0.877231440
  10    C       -2.459693652    -1.346151294    -1.034608328
  11    H       -2.754511540    -0.891709541    -1.957363700
  12    H       -2.256361089    -2.383955989    -1.197155257
  13    H       -3.248939692    -1.245078412    -0.319201408
  14    O       -0.000093743     1.530430808    -1.654712100
  15    C       -0.646043762     1.678481857    -0.389074767
  16    C        0.645925201     0.257141872    -1.703734649
  17    C       -0.370394782     0.407518128     0.376863336
  18    O       -1.245367910     2.674444435    -0.143231647
  19    C        0.370394782    -0.407518128    -0.376863336
  20    O        1.245208107    -0.065524852    -2.677549782
  21    H        0.759418475    -1.394479198    -0.168268174
  22    C       -0.924300733     0.220612434     1.801545160
  23    H       -0.537614346     0.988766297     2.438154995
  24    H       -1.992474096     0.279723451     1.779588512
  25    H       -0.627800524    -0.736526741     2.176802133


           Empirical Formula: C10 H12 O3  =    25 atoms



      MOLECULAR POINT GROUP   :   C1  


                  EIGENVALUES  
 -46.62418 -35.22660 -32.59542 -32.03024 -31.13686 -29.51264 -26.84036 -25.78510
 -23.88405 -21.96561 -21.04380 -19.84612 -19.70069 -18.68403 -17.69160 -16.98658
 -16.48101 -16.28522 -15.89502 -15.62277 -15.35590 -15.23799 -14.90954 -14.52192
 -13.97898 -13.15405 -12.91696 -12.60821 -12.55624 -12.37827 -11.62830 -10.70938
  -9.55544  -9.02385  -7.52988  -0.79855  -0.45508   0.06516   0.11987   0.34716
   0.86336   1.28921   1.42384   2.13947   2.30897   2.56400   3.16921   3.23408
   3.76008   3.96839   4.17844   4.21286   4.28342   4.51980   4.63568   4.85951
   4.88234   5.07386   5.52329   5.60868   5.87950   6.05528   6.55569   6.64064


              NET ATOMIC CHARGES AND DIPOLE CONTRIBUTIONS

  ATOM NO.   TYPE          CHARGE      No. of ELECS.   s-Pop       p-Pop       
    1          C          -0.462714        4.4627     1.06581     3.39691
    2          H           0.243089        0.7569     0.75691
    3          C           0.031100        3.9689     1.08015     2.88875
    4          H           0.177937        0.8221     0.82206
    5          C          -0.564723        4.5647     0.97462     3.59011
    6          H           0.220024        0.7800     0.77998
    7          C          -0.653186        4.6532     1.02092     3.63226
    8          H           0.279080        0.7209     0.72092
    9          H           0.232209        0.7678     0.76779
   10          C          -0.366409        4.3664     1.04069     3.32572
   11          H           0.155592        0.8444     0.84441
   12          H           0.147718        0.8523     0.85228
   13          H           0.143804        0.8562     0.85620
   14          O          -0.469850        6.4699     1.89654     4.57332
   15          C           0.567543        3.4325     1.13104     2.30141
   16          C           0.515923        3.4841     1.15329     2.33079
   17          C           0.158108        3.8419     1.00821     2.83368
   18          O          -0.315786        6.3158     1.87554     4.44025
   19          C          -0.124649        4.1246     1.08459     3.04006
   20          O          -0.321885        6.3219     1.87519     4.44670
   21          H           0.236587        0.7634     0.76341
   22          C          -0.446775        4.4468     1.03798     3.40879
   23          H           0.202449        0.7976     0.79755
   24          H           0.151577        0.8484     0.84842
   25          H           0.263238        0.7368     0.73676
 DIPOLE           X         Y         Z       TOTAL
 POINT-CHG.    -2.434    -3.645     3.829     5.820
 HYBRID         0.470     0.351     0.140     0.603
 SUM           -1.964    -3.294     3.969     5.519


          ATOMIC ORBITAL ELECTRON POPULATIONS

     Atom    s        px        py        pz   
    1  C   1.06581   1.07021   1.22886   1.09783
    2  H   0.75691
    3  C   1.08015   0.97203   0.91099   1.00573
    4  H   0.82206
    5  C   0.97462   1.34756   1.01233   1.23022
    6  H   0.77998
    7  C   1.02092   1.30970   1.15975   1.16282
    8  H   0.72092
    9  H   0.76779
   10  C   1.04069   1.03408   1.13554   1.15609
   11  H   0.84441
   12  H   0.85228
   13  H   0.85620
   14  O   1.89654   1.66742   1.47197   1.43393
   15  C   1.13104   0.71170   0.83257   0.75715
   16  C   1.15329   0.72528   0.75620   0.84931
   17  C   1.00821   0.87078   0.99307   0.96982
   18  O   1.87554   1.39138   1.33716   1.71171
   19  C   1.08459   1.04982   1.08230   0.90793
   20  O   1.87519   1.38990   1.68554   1.37126
   21  H   0.76341
   22  C   1.03798   1.14488   1.19774   1.06618
   23  H   0.79755
   24  H   0.84842
   25  H   0.73676

 **********************
 *                    *
 * JOB ENDED NORMALLY *
 *                    *
 **********************



 TOTAL JOB TIME:             0.41 SECONDS

 == MOPAC DONE ==
