 *******************************************************************************
 ** Site#: 36969        For non-commercial use only    Version 21.051W 64BITS **
 *******************************************************************************
 ** Cite this program as: MOPAC2016, Version: 21.051W, James J. P. Stewart,   **
 ** Stewart Computational Chemistry, web: HTTP://OpenMOPAC.net. Days left: 350**
 *******************************************************************************
 **                                                                           **
 **                                MOPAC2016                                  **
 **                                                                           **
 *******************************************************************************

                              PM7 CALCULATION RESULTS

 *******************************************************************************
 *  CALCULATION DONE:                                Sun Mar  7 11:21:55 2021  *
 *  PM7        - The PM7 Hamiltonian to be used
 *  1SCF       - DO 1 SCF AND THEN STOP 
 *  T=         - A TIME OF 172800.0 SECONDS REQUESTED
 *  DUMP=N     - RESTART FILE WRITTEN EVERY 7200.0 SECONDS REQUESTED
 *  RELSCF     - DEFAULT SCF CRITERION MULTIPLIED BY 0.0001
 *              (DEFAULT SCF CRITERION = 0.00010)
 *  GRADIENTS  - ALL GRADIENTS TO BE PRINTED
 *******************************************************************************
PM7 1SCF GRADIENTS RELSCF=0.0001
 Title: ASE calculation

   ATOM   CHEMICAL          X               Y               Z
  NUMBER   SYMBOL      (ANGSTROMS)     (ANGSTROMS)     (ANGSTROMS)
 
     1       C         -0.88824682  *  -2.62765492  *   1.01758680  *
     2       C         -0.97462980  *  -2.44592914  *  -0.50138716  *
     3       C         -1.16967073  *  -1.01832337  *  -0.89567046  *
     4       C         -1.39250226  *  -0.02283346  *  -0.01430551  *
     5       C         -1.45937094  *  -0.23761228  *   1.47189079  *
     6       C         -1.84882361  *  -1.69261308  *   1.75668723  *
     7       C          0.10085000  *  -3.09513000  *  -1.27750000  *
     8       C          1.06439498  *  -3.88869718  *  -0.79290615  *
     9       N         -1.68143481  *   1.29398508  *  -0.44154477  *
    10       C         -0.83526326  *   2.37606004  *   0.11043416  *
    11       C          0.20407891  *   2.83182611  *  -0.93035170  *
    12       C         -1.74893610  *   3.53933526  *   0.52708906  *
    13       H         -1.08494477  *  -3.67939891  *   1.29094622  *
    14       H          0.14971434  *  -2.41051237  *   1.34343301  *
    15       H         -1.14265232  *  -0.82379623  *  -1.96279126  *
    16       H         -2.19837590  *   0.45476862  *   1.93052792  *
    17       H         -0.48298227  *  -0.00360196  *   1.94103558  *
    18       H         -2.89111104  *  -1.87353694  *   1.42800628  *
    19       H         -1.82557337  *  -1.89141206  *   2.84229748  *
    20       H          0.14953948  *  -2.81702514  *  -2.34219911  *
    21       H          1.81787742  *  -4.34395573  *  -1.41471514  *
    22       H          1.16907023  *  -4.15922689  *   0.24372447  *
    23       H         -0.82418312  *  -5.22581198  *  -0.62134523  *
    24       H         -1.84535239  *   1.38780641  *  -1.44024797  *
    25       H         -0.29485752  *   2.00473392  *   1.01909704  *
    26       H          0.85593073  *   3.61223686  *  -0.52587997  *
    27       H          0.83969001  *   1.99332967  *  -1.23923173  *
    28       H         -0.27115159  *   3.24297392  *  -1.82722452  *
    29       H         -2.31391170  *   3.93862782  *  -0.32102986  *
    30       H         -1.17160440  *   4.35592455  *   0.97032619  *
    31       H         -2.48863344  *   3.19889649  *   1.26380950  *
    32       C         -4.01893070  *  -4.27797818  *  -0.14148020  *
    33       C         -2.89989593  *  -5.31469183  *   0.01689501  *
    34       C         -1.80802687  *  -4.90359244  *  -0.99615406  *
    35       C         -1.92497000  *  -3.38000000  *  -1.24276000  *
    36       C         -3.37591185  *  -3.08607158  *  -0.81260275  *
    37       O         -3.94756044  *  -2.05255330  *  -1.01991605  *
    38       C         -3.36422925  *  -6.74618785  *  -0.23087629  *
    39       H         -4.47581751  *  -4.00049428  *   0.82406474  *
    40       H         -4.85290257  *  -4.65256570  *  -0.76497006  *
    41       H         -2.48341669  *  -5.24574943  *   1.05056171  *
    42       H         -1.94335433  *  -5.43584828  *  -1.95376784  *
    43       H         -1.91340346  *  -3.17457169  *  -2.34686348  *
    44       H         -3.88502201  *  -6.84639082  *  -1.19061989  *
    45       H         -4.04782147  *  -7.08375340  *   0.55650071  *
    46       H         -2.51438615  *  -7.43981665  *  -0.24600386  *
 


          CARTESIAN COORDINATES 

    NO.       ATOM           X           Y           Z

     1         C         -0.8882     -2.6277      1.0176
     2         C         -0.9746     -2.4459     -0.5014
     3         C         -1.1697     -1.0183     -0.8957
     4         C         -1.3925     -0.0228     -0.0143
     5         C         -1.4594     -0.2376      1.4719
     6         C         -1.8488     -1.6926      1.7567
     7         C          0.1008     -3.0951     -1.2775
     8         C          1.0644     -3.8887     -0.7929
     9         N         -1.6814      1.2940     -0.4415
    10         C         -0.8353      2.3761      0.1104
    11         C          0.2041      2.8318     -0.9304
    12         C         -1.7489      3.5393      0.5271
    13         H         -1.0849     -3.6794      1.2909
    14         H          0.1497     -2.4105      1.3434
    15         H         -1.1427     -0.8238     -1.9628
    16         H         -2.1984      0.4548      1.9305
    17         H         -0.4830     -0.0036      1.9410
    18         H         -2.8911     -1.8735      1.4280
    19         H         -1.8256     -1.8914      2.8423
    20         H          0.1495     -2.8170     -2.3422
    21         H          1.8179     -4.3440     -1.4147
    22         H          1.1691     -4.1592      0.2437
    23         H         -0.8242     -5.2258     -0.6213
    24         H         -1.8454      1.3878     -1.4402
    25         H         -0.2949      2.0047      1.0191
    26         H          0.8559      3.6122     -0.5259
    27         H          0.8397      1.9933     -1.2392
    28         H         -0.2712      3.2430     -1.8272
    29         H         -2.3139      3.9386     -0.3210
    30         H         -1.1716      4.3559      0.9703
    31         H         -2.4886      3.1989      1.2638
    32         C         -4.0189     -4.2780     -0.1415
    33         C         -2.8999     -5.3147      0.0169
    34         C         -1.8080     -4.9036     -0.9962
    35         C         -1.9250     -3.3800     -1.2428
    36         C         -3.3759     -3.0861     -0.8126
    37         O         -3.9476     -2.0526     -1.0199
    38         C         -3.3642     -6.7462     -0.2309
    39         H         -4.4758     -4.0005      0.8241
    40         H         -4.8529     -4.6526     -0.7650
    41         H         -2.4834     -5.2457      1.0506
    42         H         -1.9434     -5.4358     -1.9538
    43         H         -1.9134     -3.1746     -2.3469
    44         H         -3.8850     -6.8464     -1.1906
    45         H         -4.0478     -7.0838      0.5565
    46         H         -2.5144     -7.4398     -0.2460

 General Reference for PM7:
 "Optimization of Parameters for Semiempirical Methods VI: More Modifications to the 
 NDDO Approximations and Re-optimization of Parameters", J. J. P. Stewart, J. Mol. Mod., 1:32, 19 (2013)
 https://link.springer.com/article/10.1007/s00894-012-1667-x

           Empirical Formula: C17 H27 N O  =    46 atoms



      MOLECULAR POINT GROUP   :   C1  


      RHF CALCULATION, NO. OF DOUBLY OCCUPIED LEVELS = 53

  SCF CRITERION =    0.1000E-07

 -------------------------------------------------------------------------------
 PM7 1SCF GRADIENTS RELSCF=0.0001
 Title: ASE calculation



     1SCF WAS SPECIFIED, SO BFGS WAS NOT USED                 
     SCF FIELD WAS ACHIEVED                                   


                              PM7 CALCULATION
                                                       MOPAC2016 (Version: 21.051W)
                                                       Sun Mar  7 11:21:55 2021
                                                       No. of days remaining = 350




          FINAL HEAT OF FORMATION =        -30.33780 KCAL/MOL =    -126.93337 KJ/MOL


          TOTAL ENERGY            =      -2933.60154 EV
          ELECTRONIC ENERGY       =     -23653.40294 EV  POINT GROUP:     C1  
          CORE-CORE REPULSION     =      20719.80140 EV
          COSMO AREA              =        305.54 SQUARE ANGSTROMS
          COSMO VOLUME            =        357.73 CUBIC ANGSTROMS

          GRADIENT NORM           =        143.77122 = 21.19791 PER ATOM
          IONIZATION POTENTIAL    =          8.209210 EV
          HOMO LUMO ENERGIES (EV) =         -8.209  1.081
          NO. OF FILLED LEVELS    =         53
          MOLECULAR WEIGHT        =        261.4064

          MOLECULAR DIMENSIONS (Angstroms)

            Atom       Atom       Distance
            H    46    H    30    11.93407
            H    21    H    40     6.63610
            H    28    H    19     5.03988


          SCF CALCULATIONS        =          1
 
          WALL-CLOCK TIME         =          0.102 SECONDS
          COMPUTATION TIME        =          0.375 SECONDS

          LARGEST ATOMIC GRADIENTS

          Atom     Label                     Cartesian Gradients           Cartesian Coordinates       |Gradient|
                                           X          Y          Z        X          Y          Z

             7       C                -100.730    -19.411      4.779    0.10085   -3.09513   -1.27750    102.694
            35       C                  98.847     17.942     -3.988   -1.92497   -3.38000   -1.24276    100.541
            16       H                  -0.305      0.743      0.703   -2.19838    0.45477    1.93053      1.067
            36       C                   0.240     -0.967     -0.224   -3.37591   -3.08607   -0.81260      1.021
            38       C                   0.934     -0.009     -0.146   -3.36423   -6.74619   -0.23088      0.945
            37       O                  -0.215      0.549      0.739   -3.94756   -2.05255   -1.01992      0.945
            34       C                   0.161      0.801      0.378   -1.80803   -4.90359   -0.99615      0.900
            39       H                  -0.145     -0.394      0.708   -4.47582   -4.00049    0.82406      0.823
            14       H                  -0.437      0.672     -0.017    0.14971   -2.41051    1.34343      0.802
             2       C                   0.516      0.598     -0.107   -0.97463   -2.44593   -0.50139      0.797



       FINAL  POINT  AND  DERIVATIVES

   PARAMETER     ATOM    TYPE            VALUE        GRADIENT
      1          1  C    CARTESIAN X    -0.888247     -0.292317  KCAL/ANGSTROM
      2          1  C    CARTESIAN Y    -2.627655      0.156715  KCAL/ANGSTROM
      3          1  C    CARTESIAN Z     1.017587     -0.469650  KCAL/ANGSTROM
      4          2  C    CARTESIAN X    -0.974630      0.516198  KCAL/ANGSTROM
      5          2  C    CARTESIAN Y    -2.445929      0.598318  KCAL/ANGSTROM
      6          2  C    CARTESIAN Z    -0.501387     -0.106601  KCAL/ANGSTROM
      7          3  C    CARTESIAN X    -1.169671     -0.354886  KCAL/ANGSTROM
      8          3  C    CARTESIAN Y    -1.018323     -0.024112  KCAL/ANGSTROM
      9          3  C    CARTESIAN Z    -0.895670     -0.240425  KCAL/ANGSTROM
     10          4  C    CARTESIAN X    -1.392502      0.055064  KCAL/ANGSTROM
     11          4  C    CARTESIAN Y    -0.022833     -0.152550  KCAL/ANGSTROM
     12          4  C    CARTESIAN Z    -0.014306     -0.206455  KCAL/ANGSTROM
     13          5  C    CARTESIAN X    -1.459371     -0.005761  KCAL/ANGSTROM
     14          5  C    CARTESIAN Y    -0.237612      0.205173  KCAL/ANGSTROM
     15          5  C    CARTESIAN Z     1.471891     -0.517156  KCAL/ANGSTROM
     16          6  C    CARTESIAN X    -1.848824      0.012427  KCAL/ANGSTROM
     17          6  C    CARTESIAN Y    -1.692613      0.143795  KCAL/ANGSTROM
     18          6  C    CARTESIAN Z     1.756687     -0.370048  KCAL/ANGSTROM
     19          7  C    CARTESIAN X     0.100850   -100.729813  KCAL/ANGSTROM
     20          7  C    CARTESIAN Y    -3.095130    -19.410854  KCAL/ANGSTROM
     21          7  C    CARTESIAN Z    -1.277500      4.778710  KCAL/ANGSTROM
     22          8  C    CARTESIAN X     1.064395     -0.001158  KCAL/ANGSTROM
     23          8  C    CARTESIAN Y    -3.888697      0.271827  KCAL/ANGSTROM
     24          8  C    CARTESIAN Z    -0.792906     -0.031908  KCAL/ANGSTROM
     25          9  N    CARTESIAN X    -1.681435     -0.291641  KCAL/ANGSTROM
     26          9  N    CARTESIAN Y     1.293985      0.013054  KCAL/ANGSTROM
     27          9  N    CARTESIAN Z    -0.441545     -0.431793  KCAL/ANGSTROM
     28         10  C    CARTESIAN X    -0.835263     -0.257008  KCAL/ANGSTROM
     29         10  C    CARTESIAN Y     2.376060      0.229770  KCAL/ANGSTROM
     30         10  C    CARTESIAN Z     0.110434      0.023232  KCAL/ANGSTROM
     31         11  C    CARTESIAN X     0.204079      0.254985  KCAL/ANGSTROM
     32         11  C    CARTESIAN Y     2.831826     -0.345317  KCAL/ANGSTROM
     33         11  C    CARTESIAN Z    -0.930352     -0.259483  KCAL/ANGSTROM
     34         12  C    CARTESIAN X    -1.748936      0.013171  KCAL/ANGSTROM
     35         12  C    CARTESIAN Y     3.539335      0.261916  KCAL/ANGSTROM
     36         12  C    CARTESIAN Z     0.527089      0.486662  KCAL/ANGSTROM
     37         13  H    CARTESIAN X    -1.084945     -0.151040  KCAL/ANGSTROM
     38         13  H    CARTESIAN Y    -3.679399     -0.083490  KCAL/ANGSTROM
     39         13  H    CARTESIAN Z     1.290946     -0.683747  KCAL/ANGSTROM
     40         14  H    CARTESIAN X     0.149714     -0.436955  KCAL/ANGSTROM
     41         14  H    CARTESIAN Y    -2.410512      0.672279  KCAL/ANGSTROM
     42         14  H    CARTESIAN Z     1.343433     -0.016750  KCAL/ANGSTROM
     43         15  H    CARTESIAN X    -1.142652      0.024362  KCAL/ANGSTROM
     44         15  H    CARTESIAN Y    -0.823796      0.495453  KCAL/ANGSTROM
     45         15  H    CARTESIAN Z    -1.962791     -0.041059  KCAL/ANGSTROM
     46         16  H    CARTESIAN X    -2.198376     -0.305240  KCAL/ANGSTROM
     47         16  H    CARTESIAN Y     0.454769      0.742524  KCAL/ANGSTROM
     48         16  H    CARTESIAN Z     1.930528      0.702608  KCAL/ANGSTROM
     49         17  H    CARTESIAN X    -0.482982      0.017384  KCAL/ANGSTROM
     50         17  H    CARTESIAN Y    -0.003602      0.028439  KCAL/ANGSTROM
     51         17  H    CARTESIAN Z     1.941036      0.231155  KCAL/ANGSTROM
     52         18  H    CARTESIAN X    -2.891111      0.294544  KCAL/ANGSTROM
     53         18  H    CARTESIAN Y    -1.873537     -0.233854  KCAL/ANGSTROM
     54         18  H    CARTESIAN Z     1.428006     -0.058357  KCAL/ANGSTROM
     55         19  H    CARTESIAN X    -1.825573      0.094575  KCAL/ANGSTROM
     56         19  H    CARTESIAN Y    -1.891412      0.242344  KCAL/ANGSTROM
     57         19  H    CARTESIAN Z     2.842297     -0.005606  KCAL/ANGSTROM
     58         20  H    CARTESIAN X     0.149539      0.291897  KCAL/ANGSTROM
     59         20  H    CARTESIAN Y    -2.817025     -0.017023  KCAL/ANGSTROM
     60         20  H    CARTESIAN Z    -2.342199     -0.318765  KCAL/ANGSTROM
     61         21  H    CARTESIAN X     1.817877      0.079468  KCAL/ANGSTROM
     62         21  H    CARTESIAN Y    -4.343956     -0.430231  KCAL/ANGSTROM
     63         21  H    CARTESIAN Z    -1.414715     -0.379309  KCAL/ANGSTROM
     64         22  H    CARTESIAN X     1.169070     -0.224441  KCAL/ANGSTROM
     65         22  H    CARTESIAN Y    -4.159227     -0.290609  KCAL/ANGSTROM
     66         22  H    CARTESIAN Z     0.243724      0.230999  KCAL/ANGSTROM
     67         23  H    CARTESIAN X    -0.824183      0.246368  KCAL/ANGSTROM
     68         23  H    CARTESIAN Y    -5.225812      0.129066  KCAL/ANGSTROM
     69         23  H    CARTESIAN Z    -0.621345      0.106139  KCAL/ANGSTROM
     70         24  H    CARTESIAN X    -1.845352      0.392121  KCAL/ANGSTROM
     71         24  H    CARTESIAN Y     1.387806     -0.367703  KCAL/ANGSTROM
     72         24  H    CARTESIAN Z    -1.440248     -0.320648  KCAL/ANGSTROM
     73         25  H    CARTESIAN X    -0.294858     -0.145081  KCAL/ANGSTROM
     74         25  H    CARTESIAN Y     2.004734     -0.006104  KCAL/ANGSTROM
     75         25  H    CARTESIAN Z     1.019097     -0.230528  KCAL/ANGSTROM
     76         26  H    CARTESIAN X     0.855931      0.106958  KCAL/ANGSTROM
     77         26  H    CARTESIAN Y     3.612237      0.219164  KCAL/ANGSTROM
     78         26  H    CARTESIAN Z    -0.525880     -0.472284  KCAL/ANGSTROM
     79         27  H    CARTESIAN X     0.839690     -0.258063  KCAL/ANGSTROM
     80         27  H    CARTESIAN Y     1.993330     -0.595221  KCAL/ANGSTROM
     81         27  H    CARTESIAN Z    -1.239232      0.247133  KCAL/ANGSTROM
     82         28  H    CARTESIAN X    -0.271152      0.041890  KCAL/ANGSTROM
     83         28  H    CARTESIAN Y     3.242974      0.199366  KCAL/ANGSTROM
     84         28  H    CARTESIAN Z    -1.827225     -0.153798  KCAL/ANGSTROM
     85         29  H    CARTESIAN X    -2.313912     -0.306472  KCAL/ANGSTROM
     86         29  H    CARTESIAN Y     3.938628      0.019005  KCAL/ANGSTROM
     87         29  H    CARTESIAN Z    -0.321030      0.648958  KCAL/ANGSTROM
     88         30  H    CARTESIAN X    -1.171604      0.463972  KCAL/ANGSTROM
     89         30  H    CARTESIAN Y     4.355925      0.261746  KCAL/ANGSTROM
     90         30  H    CARTESIAN Z     0.970326      0.379367  KCAL/ANGSTROM
     91         31  H    CARTESIAN X    -2.488633      0.011374  KCAL/ANGSTROM
     92         31  H    CARTESIAN Y     3.198896     -0.373968  KCAL/ANGSTROM
     93         31  H    CARTESIAN Z     1.263809      0.134466  KCAL/ANGSTROM
     94         32  C    CARTESIAN X    -4.018931     -0.002316  KCAL/ANGSTROM
     95         32  C    CARTESIAN Y    -4.277978     -0.432817  KCAL/ANGSTROM
     96         32  C    CARTESIAN Z    -0.141480      0.012159  KCAL/ANGSTROM
     97         33  C    CARTESIAN X    -2.899896      0.137395  KCAL/ANGSTROM
     98         33  C    CARTESIAN Y    -5.314692     -0.404271  KCAL/ANGSTROM
     99         33  C    CARTESIAN Z     0.016895     -0.490828  KCAL/ANGSTROM
    100         34  C    CARTESIAN X    -1.808027      0.160919  KCAL/ANGSTROM
    101         34  C    CARTESIAN Y    -4.903592      0.801283  KCAL/ANGSTROM
    102         34  C    CARTESIAN Z    -0.996154      0.377629  KCAL/ANGSTROM
    103         35  C    CARTESIAN X    -1.924970     98.847226  KCAL/ANGSTROM
    104         35  C    CARTESIAN Y    -3.380000     17.941600  KCAL/ANGSTROM
    105         35  C    CARTESIAN Z    -1.242760     -3.988473  KCAL/ANGSTROM
    106         36  C    CARTESIAN X    -3.375912      0.240286  KCAL/ANGSTROM
    107         36  C    CARTESIAN Y    -3.086072     -0.966806  KCAL/ANGSTROM
    108         36  C    CARTESIAN Z    -0.812603     -0.224084  KCAL/ANGSTROM
    109         37  O    CARTESIAN X    -3.947560     -0.215237  KCAL/ANGSTROM
    110         37  O    CARTESIAN Y    -2.052553      0.548585  KCAL/ANGSTROM
    111         37  O    CARTESIAN Z    -1.019916      0.738547  KCAL/ANGSTROM
    112         38  C    CARTESIAN X    -3.364229      0.933995  KCAL/ANGSTROM
    113         38  C    CARTESIAN Y    -6.746188     -0.009327  KCAL/ANGSTROM
    114         38  C    CARTESIAN Z    -0.230876     -0.146169  KCAL/ANGSTROM
    115         39  H    CARTESIAN X    -4.475818     -0.144516  KCAL/ANGSTROM
    116         39  H    CARTESIAN Y    -4.000494     -0.394115  KCAL/ANGSTROM
    117         39  H    CARTESIAN Z     0.824065      0.708218  KCAL/ANGSTROM
    118         40  H    CARTESIAN X    -4.852903     -0.254873  KCAL/ANGSTROM
    119         40  H    CARTESIAN Y    -4.652566     -0.319906  KCAL/ANGSTROM
    120         40  H    CARTESIAN Z    -0.764970     -0.267062  KCAL/ANGSTROM
    121         41  H    CARTESIAN X    -2.483417     -0.048950  KCAL/ANGSTROM
    122         41  H    CARTESIAN Y    -5.245749      0.165980  KCAL/ANGSTROM
    123         41  H    CARTESIAN Z     1.050562      0.154150  KCAL/ANGSTROM
    124         42  H    CARTESIAN X    -1.943354      0.144497  KCAL/ANGSTROM
    125         42  H    CARTESIAN Y    -5.435848      0.271283  KCAL/ANGSTROM
    126         42  H    CARTESIAN Z    -1.953768      0.033194  KCAL/ANGSTROM
    127         43  H    CARTESIAN X    -1.913403      0.172226  KCAL/ANGSTROM
    128         43  H    CARTESIAN Y    -3.174572     -0.124314  KCAL/ANGSTROM
    129         43  H    CARTESIAN Z    -2.346863      0.508582  KCAL/ANGSTROM
    130         44  H    CARTESIAN X    -3.885022     -0.124130  KCAL/ANGSTROM
    131         44  H    CARTESIAN Y    -6.846391      0.274764  KCAL/ANGSTROM
    132         44  H    CARTESIAN Z    -1.190620     -0.438566  KCAL/ANGSTROM
    133         45  H    CARTESIAN X    -4.047821      0.449851  KCAL/ANGSTROM
    134         45  H    CARTESIAN Y    -7.083753      0.044928  KCAL/ANGSTROM
    135         45  H    CARTESIAN Z     0.556501      0.565890  KCAL/ANGSTROM
    136         46  H    CARTESIAN X    -2.514386      0.546746  KCAL/ANGSTROM
    137         46  H    CARTESIAN Y    -7.439817      0.044212  KCAL/ANGSTROM
    138         46  H    CARTESIAN Z    -0.246004     -0.198247  KCAL/ANGSTROM




   ATOM   CHEMICAL          X               Y               Z
  NUMBER   SYMBOL      (ANGSTROMS)     (ANGSTROMS)     (ANGSTROMS)
 
     1       C         -0.88824682  *  -2.62765492  *   1.01758680  *
     2       C         -0.97462980  *  -2.44592914  *  -0.50138716  *
     3       C         -1.16967073  *  -1.01832337  *  -0.89567046  *
     4       C         -1.39250226  *  -0.02283346  *  -0.01430551  *
     5       C         -1.45937094  *  -0.23761228  *   1.47189079  *
     6       C         -1.84882361  *  -1.69261308  *   1.75668723  *
     7       C          0.10085000  *  -3.09513000  *  -1.27750000  *
     8       C          1.06439498  *  -3.88869718  *  -0.79290615  *
     9       N         -1.68143481  *   1.29398508  *  -0.44154477  *
    10       C         -0.83526326  *   2.37606004  *   0.11043416  *
    11       C          0.20407891  *   2.83182611  *  -0.93035170  *
    12       C         -1.74893610  *   3.53933526  *   0.52708906  *
    13       H         -1.08494477  *  -3.67939891  *   1.29094622  *
    14       H          0.14971434  *  -2.41051237  *   1.34343301  *
    15       H         -1.14265232  *  -0.82379623  *  -1.96279126  *
    16       H         -2.19837590  *   0.45476862  *   1.93052792  *
    17       H         -0.48298227  *  -0.00360196  *   1.94103558  *
    18       H         -2.89111104  *  -1.87353694  *   1.42800628  *
    19       H         -1.82557337  *  -1.89141206  *   2.84229748  *
    20       H          0.14953948  *  -2.81702514  *  -2.34219911  *
    21       H          1.81787742  *  -4.34395573  *  -1.41471514  *
    22       H          1.16907023  *  -4.15922689  *   0.24372447  *
    23       H         -0.82418312  *  -5.22581198  *  -0.62134523  *
    24       H         -1.84535239  *   1.38780641  *  -1.44024797  *
    25       H         -0.29485752  *   2.00473392  *   1.01909704  *
    26       H          0.85593073  *   3.61223686  *  -0.52587997  *
    27       H          0.83969001  *   1.99332967  *  -1.23923173  *
    28       H         -0.27115159  *   3.24297392  *  -1.82722452  *
    29       H         -2.31391170  *   3.93862782  *  -0.32102986  *
    30       H         -1.17160440  *   4.35592455  *   0.97032619  *
    31       H         -2.48863344  *   3.19889649  *   1.26380950  *
    32       C         -4.01893070  *  -4.27797818  *  -0.14148020  *
    33       C         -2.89989593  *  -5.31469183  *   0.01689501  *
    34       C         -1.80802687  *  -4.90359244  *  -0.99615406  *
    35       C         -1.92497000  *  -3.38000000  *  -1.24276000  *
    36       C         -3.37591185  *  -3.08607158  *  -0.81260275  *
    37       O         -3.94756044  *  -2.05255330  *  -1.01991605  *
    38       C         -3.36422925  *  -6.74618785  *  -0.23087629  *
    39       H         -4.47581751  *  -4.00049428  *   0.82406474  *
    40       H         -4.85290257  *  -4.65256570  *  -0.76497006  *
    41       H         -2.48341669  *  -5.24574943  *   1.05056171  *
    42       H         -1.94335433  *  -5.43584828  *  -1.95376784  *
    43       H         -1.91340346  *  -3.17457169  *  -2.34686348  *
    44       H         -3.88502201  *  -6.84639082  *  -1.19061989  *
    45       H         -4.04782147  *  -7.08375340  *   0.55650071  *
    46       H         -2.51438615  *  -7.43981665  *  -0.24600386  *

                             CARTESIAN COORDINATES

   1    C       -0.888246815    -2.627654924     1.017586804
   2    C       -0.974629805    -2.445929145    -0.501387164
   3    C       -1.169670731    -1.018323374    -0.895670458
   4    C       -1.392502263    -0.022833457    -0.014305510
   5    C       -1.459370941    -0.237612283     1.471890790
   6    C       -1.848823608    -1.692613083     1.756687226
   7    C        0.100850000    -3.095130000    -1.277500000
   8    C        1.064394980    -3.888697183    -0.792906147
   9    N       -1.681434808     1.293985082    -0.441544766
  10    C       -0.835263262     2.376060044     0.110434158
  11    C        0.204078913     2.831826106    -0.930351696
  12    C       -1.748936101     3.539335259     0.527089057
  13    H       -1.084944774    -3.679398907     1.290946219
  14    H        0.149714339    -2.410512368     1.343433006
  15    H       -1.142652323    -0.823796225    -1.962791257
  16    H       -2.198375903     0.454768616     1.930527925
  17    H       -0.482982266    -0.003601958     1.941035584
  18    H       -2.891111042    -1.873536937     1.428006275
  19    H       -1.825573365    -1.891412065     2.842297481
  20    H        0.149539484    -2.817025139    -2.342199115
  21    H        1.817877424    -4.343955728    -1.414715139
  22    H        1.169070225    -4.159226885     0.243724467
  23    H       -0.824183115    -5.225811976    -0.621345227
  24    H       -1.845352394     1.387806412    -1.440247970
  25    H       -0.294857525     2.004733918     1.019097037
  26    H        0.855930726     3.612236861    -0.525879974
  27    H        0.839690011     1.993329667    -1.239231727
  28    H       -0.271151589     3.242973919    -1.827224516
  29    H       -2.313911701     3.938627824    -0.321029860
  30    H       -1.171604400     4.355924547     0.970326193
  31    H       -2.488633436     3.198896485     1.263809495
  32    C       -4.018930703    -4.277978183    -0.141480204
  33    C       -2.899895932    -5.314691833     0.016895011
  34    C       -1.808026868    -4.903592438    -0.996154060
  35    C       -1.924970000    -3.380000000    -1.242760000
  36    C       -3.375911847    -3.086071580    -0.812602750
  37    O       -3.947560443    -2.052553299    -1.019916054
  38    C       -3.364229246    -6.746187854    -0.230876287
  39    H       -4.475817507    -4.000494278     0.824064736
  40    H       -4.852902569    -4.652565703    -0.764970065
  41    H       -2.483416693    -5.245749426     1.050561713
  42    H       -1.943354329    -5.435848276    -1.953767835
  43    H       -1.913403456    -3.174571691    -2.346863484
  44    H       -3.885022012    -6.846390816    -1.190619885
  45    H       -4.047821465    -7.083753401     0.556500711
  46    H       -2.514386151    -7.439816648    -0.246003856


           Empirical Formula: C17 H27 N O  =    46 atoms



      MOLECULAR POINT GROUP   :   C1  


                  EIGENVALUES  
 -35.71834 -31.80954 -30.35134 -29.53971 -28.28573 -27.52587 -25.81089 -25.18255
 -24.49690 -24.39287 -23.97603 -22.65172 -21.39327 -20.93699 -19.85247 -19.46313
 -18.72596 -18.03180 -17.82791 -17.04054 -16.58917 -16.26527 -15.66130 -15.57984
 -15.24302 -14.93435 -14.80519 -14.51890 -14.34915 -14.19172 -14.12140 -13.68407
 -13.59859 -13.49236 -13.38142 -13.13215 -12.95468 -12.81998 -12.51962 -12.38687
 -12.26281 -12.15163 -11.96755 -11.84172 -11.71231 -11.55580 -11.33095 -11.10807
 -10.95128 -10.30655 -10.03317  -9.30259  -8.20921   1.08145   1.30596   1.40871
   2.95758   3.15075   3.47230   3.81931   3.91907   3.98719   4.04589   4.09038
   4.20321   4.23545   4.32127   4.45001   4.58919   4.76602   4.89524   5.13922
   5.40786   5.43007   5.52422   5.60349   5.67427   5.68538   5.69270   5.73244
   5.77156   5.79666   5.85415   5.87710   5.91801   5.95796   6.02544   6.06887
   6.07907   6.18489   6.20757   6.39039   6.45694   6.52890   6.57857   6.70256
   6.72553   6.81959   6.86515   6.86583   6.92837   7.10459   7.13671


              NET ATOMIC CHARGES AND DIPOLE CONTRIBUTIONS

  ATOM NO.   TYPE          CHARGE      No. of ELECS.   s-Pop       p-Pop       
    1          C          -0.278528        4.2785     1.06052     3.21801
    2          C           0.075762        3.9242     1.03401     2.89023
    3          C          -0.346879        4.3469     1.07343     3.27345
    4          C           0.231393        3.7686     1.07044     2.69817
    5          C          -0.287271        4.2873     1.05853     3.22875
    6          C          -0.257290        4.2573     1.05774     3.19955
    7          C          -0.097006        4.0970     1.09923     2.99778
    8          C          -0.385389        4.3854     1.08797     3.29742
    9          N          -0.565456        5.5655     1.61350     3.95196
   10          C           0.124008        3.8760     1.06273     2.81326
   11          C          -0.497179        4.4972     1.06343     3.43375
   12          C          -0.462457        4.4625     1.05889     3.40357
   13          H           0.140143        0.8599     0.85986
   14          H           0.149446        0.8506     0.85055
   15          H           0.153685        0.8463     0.84632
   16          H           0.162649        0.8374     0.83735
   17          H           0.146336        0.8537     0.85366
   18          H           0.151762        0.8482     0.84824
   19          H           0.132705        0.8673     0.86730
   20          H           0.144234        0.8558     0.85577
   21          H           0.143280        0.8567     0.85672
   22          H           0.143491        0.8565     0.85651
   23          H           0.158099        0.8419     0.84190
   24          H           0.284135        0.7159     0.71587
   25          H           0.130128        0.8699     0.86987
   26          H           0.151459        0.8485     0.84854
   27          H           0.153780        0.8462     0.84622
   28          H           0.150953        0.8490     0.84905
   29          H           0.152453        0.8475     0.84755
   30          H           0.141019        0.8590     0.85898
   31          H           0.157403        0.8426     0.84260
   32          C          -0.405509        4.4055     1.07561     3.32990
   33          C          -0.067800        4.0678     1.05982     3.00798
   34          C          -0.298279        4.2983     1.07156     3.22672
   35          C          -0.231285        4.2313     1.08466     3.14663
   36          C           0.481038        3.5190     1.14108     2.37789
   37          O          -0.448780        6.4488     1.87430     4.57448
   38          C          -0.455609        4.4556     1.05541     3.40020
   39          H           0.168296        0.8317     0.83170
   40          H           0.174621        0.8254     0.82538
   41          H           0.132412        0.8676     0.86759
   42          H           0.143545        0.8565     0.85645
   43          H           0.167797        0.8322     0.83220
   44          H           0.147763        0.8522     0.85224
   45          H           0.145318        0.8547     0.85468
   46          H           0.145606        0.8544     0.85439
 DIPOLE           X         Y         Z       TOTAL
 POINT-CHG.     1.778    -1.210     1.475     2.608
 HYBRID        -0.014     0.017    -0.872     0.872
 SUM            1.764    -1.193     0.603     2.213


          ATOMIC ORBITAL ELECTRON POPULATIONS

     Atom    s        px        py        pz   
    1  C   1.06052   1.11408   1.10345   1.00048
    2  C   1.03401   0.98987   0.94234   0.95802
    3  C   1.07343   1.19732   0.99177   1.08436
    4  C   1.07044   0.89606   0.84852   0.95358
    5  C   1.05853   1.15448   1.05091   1.02336
    6  C   1.05774   1.10548   0.98623   1.10784
    7  C   1.09923   0.94608   0.97448   1.07722
    8  C   1.08797   1.06393   1.09601   1.13749
    9  N   1.61350   1.55704   1.10765   1.28727
   10  C   1.06273   0.91401   0.89286   1.00639
   11  C   1.06343   1.12888   1.17179   1.13308
   12  C   1.05889   1.13238   1.09418   1.17701
   13  H   0.85986
   14  H   0.85055
   15  H   0.84632
   16  H   0.83735
   17  H   0.85366
   18  H   0.84824
   19  H   0.86730
   20  H   0.85577
   21  H   0.85672
   22  H   0.85651
   23  H   0.84190
   24  H   0.71587
   25  H   0.86987
   26  H   0.84854
   27  H   0.84622
   28  H   0.84905
   29  H   0.84755
   30  H   0.85898
   31  H   0.84260
   32  C   1.07561   1.09438   1.06851   1.16701
   33  C   1.05982   0.97747   0.95390   1.07661
   34  C   1.07156   1.11100   1.00316   1.11256
   35  C   1.08466   1.02584   1.00008   1.12071
   36  C   1.14108   0.86160   0.81629   0.70000
   37  O   1.87430   1.69662   1.37155   1.50631
   38  C   1.05541   1.16507   1.06079   1.17434
   39  H   0.83170
   40  H   0.82538
   41  H   0.86759
   42  H   0.85645
   43  H   0.83220
   44  H   0.85224
   45  H   0.85468
   46  H   0.85439

 **********************
 *                    *
 * JOB ENDED NORMALLY *
 *                    *
 **********************



 TOTAL JOB TIME:             0.12 SECONDS

 == MOPAC DONE ==
