8
	Energy:       0.3670310
C         -1.18817       -0.16528       -0.05121
C          0.33126       -0.22526       -0.05522
H         -1.52420        0.87833        0.12518
F         -1.68941       -0.98039        0.94728
H         -1.57901       -0.50941       -1.03192
F          0.82329        0.20835        1.16236
H          0.72954        0.42644       -0.86122
H          0.66732       -1.26825       -0.23524
