 *******************************************************************************
 ** Site#: 36969        For non-commercial use only    Version 21.051W 64BITS **
 *******************************************************************************
 ** Cite this program as: MOPAC2016, Version: 21.051W, James J. P. Stewart,   **
 ** Stewart Computational Chemistry, web: HTTP://OpenMOPAC.net. Days left: 295**
 *******************************************************************************
 **                                                                           **
 **                                MOPAC2016                                  **
 **                                                                           **
 *******************************************************************************

                              PM7 CALCULATION RESULTS

 *******************************************************************************
 *  CALCULATION DONE:                                Sat May  1 12:27:14 2021  *
 *  PM7        - The PM7 Hamiltonian to be used
 *  GEO-OK     - OVERRIDE INTERATOMIC DISTANCE AND OTHER SAFETY CHECKS
 *  1SCF       - DO 1 SCF AND THEN STOP 
 *  T=         - A TIME OF 172800.0 SECONDS REQUESTED
 *  DUMP=N     - RESTART FILE WRITTEN EVERY 7200.0 SECONDS REQUESTED
 *  RELSCF     - DEFAULT SCF CRITERION MULTIPLIED BY 0.0001
 *              (DEFAULT SCF CRITERION = 0.00010)
 *  GRADIENTS  - ALL GRADIENTS TO BE PRINTED
 *******************************************************************************
PM7 GEO-OK 1SCF GRADIENTS RELSCF=0.0001
 Title: ASE calculation

   ATOM   CHEMICAL          X               Y               Z
  NUMBER   SYMBOL      (ANGSTROMS)     (ANGSTROMS)     (ANGSTROMS)
 
     1       C          0.57953712  *  -1.20282898  *   2.43227399  *
     2       H          1.36434424  *  -0.74252666  *   2.58349437  *
     3       C         -1.01565889  *   0.60780724  *   1.89686615  *
     4       H         -1.63244804  *   0.22640746  *   2.04920313  *
     5       C          0.38672948  *   1.85263207  *   1.71043944  *
     6       H         -0.55223055  *   2.55181585  *   1.92954086  *
     7       C          1.37748830  *   1.81706023  *   1.31670310  *
     8       H          2.14981667  *   1.09201251  *   1.32937320  *
     9       H          1.67300301  *   2.78280743  *   0.97047982  *
    10       C         -0.62703240  *  -2.25229211  *   2.48125914  *
    11       H          0.09353605  *  -3.02853905  *   2.14769120  *
    12       H         -0.75739112  *  -2.25342291  *   3.56399839  *
    13       H         -1.47167157  *  -2.13858242  *   1.91404377  *
    14       O         -1.39307091  *   0.24165928  *  -1.40564839  *
    15       C         -0.13221160  *   1.36854022  *  -1.75112614  *
    16       C         -1.49845144  *  -1.22790591  *  -0.66973732  *
    17       C          1.63729470  *   1.00133638  *  -1.40589084  *
    18       O         -0.01150862  *   1.79353646  *  -2.02562771  *
    19       C          0.08527387  *  -2.42875448  *  -0.12309809  *
    20       O         -1.81971918  *  -1.61249614  *  -0.56636167  *
    21       H          0.90399821  *  -2.09787619  *  -0.39730882  *
    22       C          2.54984924  *   0.14523391  *  -1.45847972  *
    23       H          2.51610675  *   0.01024951  *  -2.53733337  *
    24       H          2.81007465  *   1.19762500  *  -1.17439432  *
    25       H          3.12480939  *  -0.60775115  *  -0.93404869  *
 


          CARTESIAN COORDINATES 

    NO.       ATOM           X           Y           Z

     1         C          0.5795     -1.2028      2.4323
     2         H          1.3643     -0.7425      2.5835
     3         C         -1.0157      0.6078      1.8969
     4         H         -1.6324      0.2264      2.0492
     5         C          0.3867      1.8526      1.7104
     6         H         -0.5522      2.5518      1.9295
     7         C          1.3775      1.8171      1.3167
     8         H          2.1498      1.0920      1.3294
     9         H          1.6730      2.7828      0.9705
    10         C         -0.6270     -2.2523      2.4813
    11         H          0.0935     -3.0285      2.1477
    12         H         -0.7574     -2.2534      3.5640
    13         H         -1.4717     -2.1386      1.9140
    14         O         -1.3931      0.2417     -1.4056
    15         C         -0.1322      1.3685     -1.7511
    16         C         -1.4985     -1.2279     -0.6697
    17         C          1.6373      1.0013     -1.4059
    18         O         -0.0115      1.7935     -2.0256
    19         C          0.0853     -2.4288     -0.1231
    20         O         -1.8197     -1.6125     -0.5664
    21         H          0.9040     -2.0979     -0.3973
    22         C          2.5498      0.1452     -1.4585
    23         H          2.5161      0.0102     -2.5373
    24         H          2.8101      1.1976     -1.1744
    25         H          3.1248     -0.6078     -0.9340

 General Reference for PM7:
 "Optimization of Parameters for Semiempirical Methods VI: More Modifications to the 
 NDDO Approximations and Re-optimization of Parameters", J. J. P. Stewart, J. Mol. Mod., 1:32, 19 (2013)
 https://link.springer.com/article/10.1007/s00894-012-1667-x

           Empirical Formula: C10 H12 O3  =    25 atoms



      MOLECULAR POINT GROUP   :   C1  


      RHF CALCULATION, NO. OF DOUBLY OCCUPIED LEVELS = 35

  SCF CRITERION =    0.1000E-07


 ALL CONVERGERS ARE NOW FORCED ON
 SHIFT=10, PULAY ON, CAMP-KING ON
 AND ITERATION COUNTER RESET



 -------------------------------------------------------------------------------
 PM7 GEO-OK 1SCF GRADIENTS RELSCF=0.0001
 Title: ASE calculation



     1SCF WAS SPECIFIED, SO BFGS WAS NOT USED                 
     SCF FIELD WAS ACHIEVED                                   


                              PM7 CALCULATION
                                                       MOPAC2016 (Version: 21.051W)
                                                       Sat May  1 12:27:16 2021
                                                       No. of days remaining = 295




          FINAL HEAT OF FORMATION =      15979.03950 KCAL/MOL =   66856.30128 KJ/MOL


          Calculated Heat of Formation is very large, re-run using keyword 'CHECK'




          TOTAL ENERGY            =      -1578.60401 EV
          ELECTRONIC ENERGY       =     -12339.30878 EV  POINT GROUP:     C1  
          CORE-CORE REPULSION     =      10760.70476 EV
          COSMO AREA              =        216.03 SQUARE ANGSTROMS
          COSMO VOLUME            =        253.98 CUBIC ANGSTROMS

          GRADIENT NORM           =     305429.70387 = 61085.94077 PER ATOM
          IONIZATION POTENTIAL    =          6.185655 EV
          HOMO LUMO ENERGIES (EV) =         -6.186 -0.326
          NO. OF FILLED LEVELS    =         35
          MOLECULAR WEIGHT        =        180.2030

          MOLECULAR DIMENSIONS (Angstroms)

            Atom       Atom       Distance
            H    23    H    12     7.28466
            H     9    O    20     5.58241
            H     6    H    25     4.32956


          SCF CALCULATIONS        =          1
 
          WALL-CLOCK TIME         =          2.145 SECONDS
          COMPUTATION TIME        =          7.984 SECONDS

          LARGEST ATOMIC GRADIENTS

          Atom     Label                     Cartesian Gradients           Cartesian Coordinates       |Gradient|
                                           X          Y          Z        X          Y          Z

            20       O              105172.506 125803.719 -33774.329   -1.81972   -1.61250   -0.56636 167417.254
            16       C             -105163.923-125801.640  33776.244   -1.49845   -1.22791   -0.66974 167410.686
            15       C               31659.672 111440.960 -72087.901   -0.13221    1.36854   -1.75113 136448.114
            18       O              -31572.185-111434.042  72095.779   -0.01151    1.79354   -2.02563 136426.354
             5       C                1005.530     49.140   -340.904    0.38673    1.85263    1.71044   1062.883
             7       C                -780.958     17.623    280.401    1.37749    1.81706    1.31670    829.958
             3       C                -305.004   -143.265     45.210   -1.01566    0.60781    1.89687    339.994
            22       C                 -96.079    201.395     78.171    2.54985    0.14523   -1.45848    236.436
             4       H                 173.316    103.713    -47.652   -1.63245    0.22641    2.04920    207.522
            17       C                 160.113    -88.595    -79.552    1.63729    1.00134   -1.40589    199.533
             1       C                 173.249     42.944     42.807    0.57954   -1.20283    2.43227    183.554
            10       C                -151.322    -79.046    -38.025   -0.62703   -2.25229    2.48126    174.907
            24       H                 -79.602   -114.759    -44.788    2.81007    1.19763   -1.17439    146.670
            21       H                 -73.327    -31.128     22.223    0.90400   -2.09788   -0.39731     82.702
            23       H                 -39.482     49.470     39.265    2.51611    0.01025   -2.53733     74.484
             9       H                 -50.184    -34.603     21.813    1.67300    2.78281    0.97048     64.743
            19       C                  55.783     16.313    -19.993    0.08527   -2.42875   -0.12310     61.462
             2       H                 -50.350    -18.447    -17.594    1.36434   -0.74253    2.58349     56.436
            14       O                 -32.324    -37.334     17.059   -1.39307    0.24166   -1.40565     52.246
             6       H                 -47.203      5.030     11.455   -0.55223    2.55182    1.92954     48.833



       FINAL  POINT  AND  DERIVATIVES

   PARAMETER     ATOM    TYPE            VALUE        GRADIENT
      1          1  C    CARTESIAN X     0.579537    173.249376  KCAL/ANGSTROM
      2          1  C    CARTESIAN Y    -1.202829     42.944228  KCAL/ANGSTROM
      3          1  C    CARTESIAN Z     2.432274     42.807416  KCAL/ANGSTROM
      4          2  H    CARTESIAN X     1.364344    -50.350211  KCAL/ANGSTROM
      5          2  H    CARTESIAN Y    -0.742527    -18.447457  KCAL/ANGSTROM
      6          2  H    CARTESIAN Z     2.583494    -17.594088  KCAL/ANGSTROM
      7          3  C    CARTESIAN X    -1.015659   -305.003671  KCAL/ANGSTROM
      8          3  C    CARTESIAN Y     0.607807   -143.265216  KCAL/ANGSTROM
      9          3  C    CARTESIAN Z     1.896866     45.209608  KCAL/ANGSTROM
     10          4  H    CARTESIAN X    -1.632448    173.315518  KCAL/ANGSTROM
     11          4  H    CARTESIAN Y     0.226407    103.713171  KCAL/ANGSTROM
     12          4  H    CARTESIAN Z     2.049203    -47.652242  KCAL/ANGSTROM
     13          5  C    CARTESIAN X     0.386729   1005.529597  KCAL/ANGSTROM
     14          5  C    CARTESIAN Y     1.852632     49.140336  KCAL/ANGSTROM
     15          5  C    CARTESIAN Z     1.710439   -340.904490  KCAL/ANGSTROM
     16          6  H    CARTESIAN X    -0.552231    -47.203144  KCAL/ANGSTROM
     17          6  H    CARTESIAN Y     2.551816      5.030365  KCAL/ANGSTROM
     18          6  H    CARTESIAN Z     1.929541     11.455137  KCAL/ANGSTROM
     19          7  C    CARTESIAN X     1.377488   -780.957723  KCAL/ANGSTROM
     20          7  C    CARTESIAN Y     1.817060     17.622953  KCAL/ANGSTROM
     21          7  C    CARTESIAN Z     1.316703    280.401449  KCAL/ANGSTROM
     22          8  H    CARTESIAN X     2.149817    -18.319176  KCAL/ANGSTROM
     23          8  H    CARTESIAN Y     1.092013     21.887743  KCAL/ANGSTROM
     24          8  H    CARTESIAN Z     1.329373     17.958954  KCAL/ANGSTROM
     25          9  H    CARTESIAN X     1.673003    -50.184186  KCAL/ANGSTROM
     26          9  H    CARTESIAN Y     2.782807    -34.603338  KCAL/ANGSTROM
     27          9  H    CARTESIAN Z     0.970480     21.812730  KCAL/ANGSTROM
     28         10  C    CARTESIAN X    -0.627032   -151.322118  KCAL/ANGSTROM
     29         10  C    CARTESIAN Y    -2.252292    -79.045954  KCAL/ANGSTROM
     30         10  C    CARTESIAN Z     2.481259    -38.024743  KCAL/ANGSTROM
     31         11  H    CARTESIAN X     0.093536     15.258815  KCAL/ANGSTROM
     32         11  H    CARTESIAN Y    -3.028539     28.328600  KCAL/ANGSTROM
     33         11  H    CARTESIAN Z     2.147691      3.180250  KCAL/ANGSTROM
     34         12  H    CARTESIAN X    -0.757391     18.552189  KCAL/ANGSTROM
     35         12  H    CARTESIAN Y    -2.253423     17.359085  KCAL/ANGSTROM
     36         12  H    CARTESIAN Z     3.563998     -4.825939  KCAL/ANGSTROM
     37         13  H    CARTESIAN X    -1.471672     19.447172  KCAL/ANGSTROM
     38         13  H    CARTESIAN Y    -2.138582     -8.487413  KCAL/ANGSTROM
     39         13  H    CARTESIAN Z     1.914044     17.157252  KCAL/ANGSTROM
     40         14  O    CARTESIAN X    -1.393071    -32.323951  KCAL/ANGSTROM
     41         14  O    CARTESIAN Y     0.241659    -37.334267  KCAL/ANGSTROM
     42         14  O    CARTESIAN Z    -1.405648     17.058806  KCAL/ANGSTROM
     43         15  C    CARTESIAN X    -0.132212  31659.671816  KCAL/ANGSTROM
     44         15  C    CARTESIAN Y     1.368540 111440.960301  KCAL/ANGSTROM
     45         15  C    CARTESIAN Z    -1.751126 -72087.900676  KCAL/ANGSTROM
     46         16  C    CARTESIAN X    -1.498451-105163.923358  KCAL/ANGSTROM
     47         16  C    CARTESIAN Y    -1.227906-125801.639597  KCAL/ANGSTROM
     48         16  C    CARTESIAN Z    -0.669737  33776.243630  KCAL/ANGSTROM
     49         17  C    CARTESIAN X     1.637295    160.112511  KCAL/ANGSTROM
     50         17  C    CARTESIAN Y     1.001336    -88.594631  KCAL/ANGSTROM
     51         17  C    CARTESIAN Z    -1.405891    -79.552182  KCAL/ANGSTROM
     52         18  O    CARTESIAN X    -0.011509 -31572.185466  KCAL/ANGSTROM
     53         18  O    CARTESIAN Y     1.793536-111434.042008  KCAL/ANGSTROM
     54         18  O    CARTESIAN Z    -2.025628  72095.778802  KCAL/ANGSTROM
     55         19  C    CARTESIAN X     0.085274     55.782936  KCAL/ANGSTROM
     56         19  C    CARTESIAN Y    -2.428754     16.312767  KCAL/ANGSTROM
     57         19  C    CARTESIAN Z    -0.123098    -19.993368  KCAL/ANGSTROM
     58         20  O    CARTESIAN X    -1.819719 105172.506115  KCAL/ANGSTROM
     59         20  O    CARTESIAN Y    -1.612496 125803.718870  KCAL/ANGSTROM
     60         20  O    CARTESIAN Z    -0.566362 -33774.328927  KCAL/ANGSTROM
     61         21  H    CARTESIAN X     0.903998    -73.326904  KCAL/ANGSTROM
     62         21  H    CARTESIAN Y    -2.097876    -31.128338  KCAL/ANGSTROM
     63         21  H    CARTESIAN Z    -0.397309     22.223474  KCAL/ANGSTROM
     64         22  C    CARTESIAN X     2.549849    -96.079486  KCAL/ANGSTROM
     65         22  C    CARTESIAN Y     0.145234    201.394944  KCAL/ANGSTROM
     66         22  C    CARTESIAN Z    -1.458480     78.171244  KCAL/ANGSTROM
     67         23  H    CARTESIAN X     2.516107    -39.481880  KCAL/ANGSTROM
     68         23  H    CARTESIAN Y     0.010250     49.470065  KCAL/ANGSTROM
     69         23  H    CARTESIAN Z    -2.537333     39.265482  KCAL/ANGSTROM
     70         24  H    CARTESIAN X     2.810075    -79.601580  KCAL/ANGSTROM
     71         24  H    CARTESIAN Y     1.197625   -114.759182  KCAL/ANGSTROM
     72         24  H    CARTESIAN Z    -1.174394    -44.787919  KCAL/ANGSTROM
     73         25  H    CARTESIAN X     3.124809      6.836803  KCAL/ANGSTROM
     74         25  H    CARTESIAN Y    -0.607751     -6.536063  KCAL/ANGSTROM
     75         25  H    CARTESIAN Z    -0.934049    -13.159814  KCAL/ANGSTROM




   ATOM   CHEMICAL          X               Y               Z
  NUMBER   SYMBOL      (ANGSTROMS)     (ANGSTROMS)     (ANGSTROMS)
 
     1       C          0.57953712  *  -1.20282898  *   2.43227399  *
     2       H          1.36434424  *  -0.74252666  *   2.58349437  *
     3       C         -1.01565889  *   0.60780724  *   1.89686615  *
     4       H         -1.63244804  *   0.22640746  *   2.04920313  *
     5       C          0.38672948  *   1.85263207  *   1.71043944  *
     6       H         -0.55223055  *   2.55181585  *   1.92954086  *
     7       C          1.37748830  *   1.81706023  *   1.31670310  *
     8       H          2.14981667  *   1.09201251  *   1.32937320  *
     9       H          1.67300301  *   2.78280743  *   0.97047982  *
    10       C         -0.62703240  *  -2.25229211  *   2.48125914  *
    11       H          0.09353605  *  -3.02853905  *   2.14769120  *
    12       H         -0.75739112  *  -2.25342291  *   3.56399839  *
    13       H         -1.47167157  *  -2.13858242  *   1.91404377  *
    14       O         -1.39307091  *   0.24165928  *  -1.40564839  *
    15       C         -0.13221160  *   1.36854022  *  -1.75112614  *
    16       C         -1.49845144  *  -1.22790591  *  -0.66973732  *
    17       C          1.63729470  *   1.00133638  *  -1.40589084  *
    18       O         -0.01150862  *   1.79353646  *  -2.02562771  *
    19       C          0.08527387  *  -2.42875448  *  -0.12309809  *
    20       O         -1.81971918  *  -1.61249614  *  -0.56636167  *
    21       H          0.90399821  *  -2.09787619  *  -0.39730882  *
    22       C          2.54984924  *   0.14523391  *  -1.45847972  *
    23       H          2.51610675  *   0.01024951  *  -2.53733337  *
    24       H          2.81007465  *   1.19762500  *  -1.17439432  *
    25       H          3.12480939  *  -0.60775115  *  -0.93404869  *

                             CARTESIAN COORDINATES

   1    C        0.579537125    -1.202828975     2.432273986
   2    H        1.364344239    -0.742526664     2.583494372
   3    C       -1.015658890     0.607807244     1.896866148
   4    H       -1.632448040     0.226407463     2.049203126
   5    C        0.386729481     1.852632067     1.710439437
   6    H       -0.552230553     2.551815853     1.929540863
   7    C        1.377488301     1.817060234     1.316703100
   8    H        2.149816675     1.092012512     1.329373198
   9    H        1.673003008     2.782807434     0.970479824
  10    C       -0.627032402    -2.252292107     2.481259144
  11    H        0.093536051    -3.028539047     2.147691200
  12    H       -0.757391122    -2.253422911     3.563998389
  13    H       -1.471671574    -2.138582422     1.914043773
  14    O       -1.393070914     0.241659277    -1.405648394
  15    C       -0.132211597     1.368540220    -1.751126137
  16    C       -1.498451436    -1.227905913    -0.669737322
  17    C        1.637294699     1.001336383    -1.405890844
  18    O       -0.011508621     1.793536461    -2.025627706
  19    C        0.085273869    -2.428754482    -0.123098090
  20    O       -1.819719177    -1.612496139    -0.566361672
  21    H        0.903998210    -2.097876194    -0.397308823
  22    C        2.549849235     0.145233910    -1.458479721
  23    H        2.516106748     0.010249506    -2.537333367
  24    H        2.810074646     1.197625001    -1.174394325
  25    H        3.124809392    -0.607751145    -0.934048689


           Empirical Formula: C10 H12 O3  =    25 atoms



      MOLECULAR POINT GROUP   :   C1  


                  EIGENVALUES  
 -52.83305 -52.31237 -29.41439 -28.68022 -27.22439 -26.98250 -26.74603 -26.63595
 -26.56221 -26.26909 -25.89314 -22.19617 -20.51255 -20.22347 -19.62097 -18.90545
 -16.83038 -15.98313 -14.93650 -14.83456 -14.35770 -14.09797 -13.02276 -12.42963
 -12.16375 -11.64621 -10.56170  -9.75791  -9.40805  -9.37360  -8.89627  -7.88513
  -7.17604  -6.60307  -6.18565  -0.32613   0.37929   0.91252   1.12009   1.43548
   1.95198   2.44554   2.98128   3.50087   4.69059   5.01286   5.08393   5.29691
   5.38872   5.56123   5.92154   6.03783   6.11774   6.14442   6.61962   6.64275
   6.73788   7.67407   7.96883   8.31836   8.46135   9.10639  10.37744  10.91087


              NET ATOMIC CHARGES AND DIPOLE CONTRIBUTIONS

  ATOM NO.   TYPE          CHARGE      No. of ELECS.   s-Pop       p-Pop       
    1          C          -0.242763        4.2428     1.22884     3.01393
    2          H           0.150992        0.8490     0.84901
    3          C          -0.285446        4.2854     1.24860     3.03685
    4          H           0.102078        0.8979     0.89792
    5          C          -0.016490        4.0165     1.08126     2.93523
    6          H           0.159257        0.8407     0.84074
    7          C          -0.338433        4.3384     1.02580     3.31263
    8          H           0.184535        0.8155     0.81546
    9          H           0.176090        0.8239     0.82391
   10          C          -0.384045        4.3840     1.05870     3.32534
   11          H           0.199007        0.8010     0.80099
   12          H           0.162399        0.8376     0.83760
   13          H           0.141596        0.8584     0.85840
   14          O          -1.026230        7.0262     1.96255     5.06368
   15          C           0.853556        3.1464     1.03019     2.11626
   16          C           0.645002        3.3550     1.18591     2.16909
   17          C          -1.013847        5.0138     1.24586     3.76798
   18          O           0.278389        5.7216     1.29168     4.42993
   19          C          -0.277778        4.2778     1.66649     2.61128
   20          O           0.187904        5.8121     1.29696     4.51514
   21          H           0.011892        0.9881     0.98811
   22          C          -0.211837        4.2118     1.02213     3.18971
   23          H           0.137842        0.8622     0.86216
   24          H           0.269679        0.7303     0.73032
   25          H           0.136651        0.8633     0.86335
 DIPOLE           X         Y         Z       TOTAL
 POINT-CHG.    -2.060     1.177    -0.689     2.470
 HYBRID         2.520     0.395     0.362     2.577
 SUM            0.461     1.572    -0.327     1.670


          ATOMIC ORBITAL ELECTRON POPULATIONS

     Atom    s        px        py        pz   
    1  C   1.22884   0.86795   0.80108   1.34489
    2  H   0.84901
    3  C   1.24860   0.86792   0.43833   1.73060
    4  H   0.89792
    5  C   1.08126   0.97081   0.99657   0.96785
    6  H   0.84074
    7  C   1.02580   1.11627   1.15301   1.04336
    8  H   0.81546
    9  H   0.82391
   10  C   1.05870   1.05045   1.12721   1.14769
   11  H   0.80099
   12  H   0.83760
   13  H   0.85840
   14  O   1.96255   1.61772   1.56988   1.87607
   15  C   1.03019   0.70184   0.71655   0.69786
   16  C   1.18591   0.75359   0.72034   0.69516
   17  C   1.24586   0.94129   0.90990   1.91679
   18  O   1.29168   1.42319   1.58303   1.42371
   19  C   1.66649   1.22042   1.05708   0.33379
   20  O   1.29696   1.59545   1.56151   1.35818
   21  H   0.98811
   22  C   1.02213   1.13286   0.89249   1.16437
   23  H   0.86216
   24  H   0.73032
   25  H   0.86335

 **********************
 *                    *
 * JOB ENDED NORMALLY *
 *                    *
 **********************



 TOTAL JOB TIME:             2.16 SECONDS

 == MOPAC DONE ==
