 *******************************************************************************
 ** Site#: 36969        For non-commercial use only    Version 21.051W 64BITS **
 *******************************************************************************
 ** Cite this program as: MOPAC2016, Version: 21.051W, James J. P. Stewart,   **
 ** Stewart Computational Chemistry, web: HTTP://OpenMOPAC.net. Days left: 295**
 *******************************************************************************
 **                                                                           **
 **                                MOPAC2016                                  **
 **                                                                           **
 *******************************************************************************

                              PM7 CALCULATION RESULTS

 *******************************************************************************
 *  CALCULATION DONE:                                Sat May  1 10:16:52 2021  *
 *  PM7        - The PM7 Hamiltonian to be used
 *  FORCE      - FORCE CALCULATION SPECIFIED
 *  T=         - A TIME OF 172800.0 SECONDS REQUESTED
 *  DUMP=N     - RESTART FILE WRITTEN EVERY 7200.0 SECONDS REQUESTED
 *******************************************************************************
PM7 FORCE
 ts

   ATOM   CHEMICAL          X               Y               Z
  NUMBER   SYMBOL      (ANGSTROMS)     (ANGSTROMS)     (ANGSTROMS)
 
     1       C          0.17136376  *  -0.87408311  *   1.97366672  *
     2       H          1.26553090  *  -0.87651186  *   1.98212215  *
     3       C         -0.53815746  *   0.31203071  *   1.98609019  *
     4       H         -1.59112203  *   0.31507323  *   2.27661525  *
     5       C          0.01892601  *   1.49142986  *   1.47156107  *
     6       H         -0.62394101  *   2.37196784  *   1.37384000  *
     7       C          1.29074061  *   1.50534713  *   0.93102320  *
     8       H          2.07916562  *   0.86009592  *   1.30266536  *
     9       H          1.67266027  *   2.39226331  *   0.43886280  *
    10       C         -0.47277027  *  -2.15232211  *   2.37570842  *
    11       H          0.14847890  *  -3.03184050  *   2.16307120  *
    12       H         -0.68192242  *  -2.15981916  *   3.45791574  *
    13       H         -1.44162847  *  -2.31427244  *   1.86834507  *
    14       O         -1.23082485  *   0.36744863  *  -1.19399722  *
    15       C         -0.01250563  *   1.03474045  *  -1.32931056  *
    16       C         -1.02033082  *  -0.87144883  *  -0.54908000  *
    17       C          1.05138159  *   0.17872448  *  -0.69049888  *
    18       O          0.03572976  *   2.08912841  *  -1.88287696  *
    19       C          0.41619193  *  -0.97688939  *  -0.23002159  *
    20       O         -1.95201496  *  -1.59792790  *  -0.38280890  *
    21       H          0.87225288  *  -1.93731824  *  -0.07113419  *
    22       C          2.43912283  *   0.24013587  *  -1.20850892  *
    23       H          2.46469364  *  -0.03780486  *  -2.27832959  *
    24       H          2.88211358  *   1.24657589  *  -1.15246834  *
    25       H          3.11531242  *  -0.44893065  *  -0.68352585  *
 


          CARTESIAN COORDINATES 

    NO.       ATOM           X           Y           Z

     1         C          0.1714     -0.8741      1.9737
     2         H          1.2655     -0.8765      1.9821
     3         C         -0.5382      0.3120      1.9861
     4         H         -1.5911      0.3151      2.2766
     5         C          0.0189      1.4914      1.4716
     6         H         -0.6239      2.3720      1.3738
     7         C          1.2907      1.5053      0.9310
     8         H          2.0792      0.8601      1.3027
     9         H          1.6727      2.3923      0.4389
    10         C         -0.4728     -2.1523      2.3757
    11         H          0.1485     -3.0318      2.1631
    12         H         -0.6819     -2.1598      3.4579
    13         H         -1.4416     -2.3143      1.8683
    14         O         -1.2308      0.3674     -1.1940
    15         C         -0.0125      1.0347     -1.3293
    16         C         -1.0203     -0.8714     -0.5491
    17         C          1.0514      0.1787     -0.6905
    18         O          0.0357      2.0891     -1.8829
    19         C          0.4162     -0.9769     -0.2300
    20         O         -1.9520     -1.5979     -0.3828
    21         H          0.8723     -1.9373     -0.0711
    22         C          2.4391      0.2401     -1.2085
    23         H          2.4647     -0.0378     -2.2783
    24         H          2.8821      1.2466     -1.1525
    25         H          3.1153     -0.4489     -0.6835

 General Reference for PM7:
 "Optimization of Parameters for Semiempirical Methods VI: More Modifications to the 
 NDDO Approximations and Re-optimization of Parameters", J. J. P. Stewart, J. Mol. Mod., 1:32, 19 (2013)
 https://link.springer.com/article/10.1007/s00894-012-1667-x

           Empirical Formula: C10 H12 O3  =    25 atoms



      MOLECULAR POINT GROUP   :   C1  


      RHF CALCULATION, NO. OF DOUBLY OCCUPIED LEVELS = 35



          HEAT OF FORMATION =     -60.896084 KCALS/MOLE


          CARTESIAN COORDINATE DERIVATIVES

   NUMBER  ATOM         X            Y            Z

     1       C      0.230907    -0.183547     0.023354
     2       H     -0.165322     0.220439    -0.107235
     3       C     -0.413884    -0.096532     0.178709
     4       H     -0.085749    -0.029183    -0.376620
     5       C      0.234196     0.470728    -0.381670
     6       H     -0.125091    -0.120163    -0.333961
     7       C      0.127498     0.043525     0.191422
     8       H     -0.121402    -0.408221     0.012787
     9       H      0.304975     0.015710     0.527471
    10       C      0.105332     0.121774    -0.079605
    11       H      0.124375     0.029623     0.243723
    12       H      0.435038     0.350539    -0.055232
    13       H     -0.027658     0.051098     0.186754
    14       O     -0.073678    -0.114673    -0.155381
    15       C     -0.117042    -0.142360     0.200918
    16       C      0.405316     0.336576    -0.056351
    17       C     -0.048957    -0.104980    -0.025792
    18       O      0.010681     0.000984     0.025999
    19       C     -0.014722    -0.164555    -0.102631
    20       O     -0.252601    -0.415267     0.110126
    21       H     -0.364684    -0.098667    -0.262638
    22       C     -0.054030     0.007377     0.148962
    23       H     -0.160053     0.616415    -0.079531
    24       H      0.112959    -0.093049     0.517777
    25       H     -0.066410    -0.293596    -0.351362
 


          GRADIENT NORM =   2.00544


          TIME FOR SCF CALCULATION =    0.01

          TIME FOR DERIVATIVES     =    0.01

          MOLECULAR WEIGHT =  180.20



          ROTATIONAL CONSTANTS IN CM(-1)

          A =    0.03885183   B =    0.02602287   C =    0.02201196



           PRINCIPAL MOMENTS OF INERTIA IN UNITS OF 10**(-40)*GRAM-CM**2

          A =      720.5007   B =     1075.6991   C =     1271.7076


          ORIENTATION OF MOLECULE IN FORCE CALCULATION

    NO.       ATOM         X         Y         Z

     1          C       0.1878   -0.8933    1.9181
     2          H       1.2820   -0.8933    1.9181
     3          C      -0.5242    0.2914    1.9181
     4          H      -1.5749    0.2966    2.2168
     5          C       0.0263    1.4640    1.3815
     6          H      -0.6193    2.3416    1.2755
     7          C       1.2938    1.4725    0.8310
     8          H       2.0865    0.8346    1.2062
     9          H       1.6700    2.3526    0.3225
    10          C      -0.4503   -2.1666    2.3444
    11          H       0.1712   -3.0480    2.1403
    12          H      -0.6511   -2.1582    3.4282
    13          H      -1.4227   -2.3383    1.8471
    14          O      -1.2415    0.2972   -1.2569
    15          C      -0.0258    0.9650   -1.4118
    16          C      -1.0233   -0.9313   -0.5950
    17          C       1.0449    0.1209   -0.7684
    18          O       0.0158    2.0109   -1.9816
    19          C       0.4159   -1.0289   -0.2856
    20          O      -1.9521   -1.6572   -0.4106
    21          H       0.8753   -1.9859   -0.1157
    22          C       2.4285    0.1774   -1.2980
    23          H       2.4464   -0.1166   -2.3637
    24          H       2.8696    1.1855   -1.2606
    25          H       3.1102   -0.5022   -0.7679


    FIRST DERIVATIVES WILL BE USED IN THE CALCULATION OF SECOND DERIVATIVES

          ESTIMATED TIME TO COMPLETE CALCULATION =        2.93 SECONDS

    FOR POINT-GROUP C1   THERE ARE   1 UNIQUE SYMMETRY FUNCTIONS.

 STEP:   1 TIME =     0.04 SECS, INTEGRAL =      0.04 TIME LEFT: 172799.95
 STEP:   2 TIME =     0.04 SECS, INTEGRAL =      0.07 TIME LEFT: 172799.91
 STEP:   3 TIME =     0.02 SECS, INTEGRAL =      0.09 TIME LEFT: 172799.89
 STEP:   4 TIME =     0.03 SECS, INTEGRAL =      0.12 TIME LEFT: 172799.86
 STEP:   5 TIME =     0.03 SECS, INTEGRAL =      0.16 TIME LEFT: 172799.82
 STEP:   6 TIME =     0.04 SECS, INTEGRAL =      0.19 TIME LEFT: 172799.79
 STEP:   7 TIME =     0.03 SECS, INTEGRAL =      0.22 TIME LEFT: 172799.76
 STEP:   8 TIME =     0.03 SECS, INTEGRAL =      0.25 TIME LEFT: 172799.73
 STEP:   9 TIME =     0.03 SECS, INTEGRAL =      0.29 TIME LEFT: 172799.70
 STEP:  10 TIME =     0.03 SECS, INTEGRAL =      0.32 TIME LEFT: 172799.66
 STEP:  11 TIME =     0.03 SECS, INTEGRAL =      0.35 TIME LEFT: 172799.63
 STEP:  12 TIME =     0.02 SECS, INTEGRAL =      0.37 TIME LEFT: 172799.61
 STEP:  13 TIME =     0.04 SECS, INTEGRAL =      0.40 TIME LEFT: 172799.58
 STEP:  14 TIME =     0.04 SECS, INTEGRAL =      0.44 TIME LEFT: 172799.54
 STEP:  15 TIME =     0.04 SECS, INTEGRAL =      0.47 TIME LEFT: 172799.51
 STEP:  16 TIME =     0.02 SECS, INTEGRAL =      0.50 TIME LEFT: 172799.48
 STEP:  17 TIME =     0.03 SECS, INTEGRAL =      0.52 TIME LEFT: 172799.46
 STEP:  18 TIME =     0.03 SECS, INTEGRAL =      0.55 TIME LEFT: 172799.43
 STEP:  19 TIME =     0.03 SECS, INTEGRAL =      0.59 TIME LEFT: 172799.39
 STEP:  20 TIME =     0.02 SECS, INTEGRAL =      0.61 TIME LEFT: 172799.38
 STEP:  21 TIME =     0.02 SECS, INTEGRAL =      0.63 TIME LEFT: 172799.35
 STEP:  22 TIME =     0.02 SECS, INTEGRAL =      0.65 TIME LEFT: 172799.33
 STEP:  23 TIME =     0.03 SECS, INTEGRAL =      0.68 TIME LEFT: 172799.30
 STEP:  24 TIME =     0.02 SECS, INTEGRAL =      0.70 TIME LEFT: 172799.28
 STEP:  25 TIME =     0.03 SECS, INTEGRAL =      0.73 TIME LEFT: 172799.25
 STEP:  26 TIME =     0.03 SECS, INTEGRAL =      0.76 TIME LEFT: 172799.22
 STEP:  27 TIME =     0.04 SECS, INTEGRAL =      0.80 TIME LEFT: 172799.18
 STEP:  28 TIME =     0.03 SECS, INTEGRAL =      0.82 TIME LEFT: 172799.16
 STEP:  29 TIME =     0.03 SECS, INTEGRAL =      0.85 TIME LEFT: 172799.13
 STEP:  30 TIME =     0.02 SECS, INTEGRAL =      0.88 TIME LEFT: 172799.11
 STEP:  31 TIME =     0.03 SECS, INTEGRAL =      0.91 TIME LEFT: 172799.07
 STEP:  32 TIME =     0.03 SECS, INTEGRAL =      0.93 TIME LEFT: 172799.05
 STEP:  33 TIME =     0.02 SECS, INTEGRAL =      0.96 TIME LEFT: 172799.02
 STEP:  34 TIME =     0.03 SECS, INTEGRAL =      0.98 TIME LEFT: 172799.00
 STEP:  35 TIME =     0.03 SECS, INTEGRAL =      1.01 TIME LEFT: 172798.97
 STEP:  36 TIME =     0.03 SECS, INTEGRAL =      1.04 TIME LEFT: 172798.94
 STEP:  37 TIME =     0.03 SECS, INTEGRAL =      1.07 TIME LEFT: 172798.91
 STEP:  38 TIME =     0.02 SECS, INTEGRAL =      1.08 TIME LEFT: 172798.90
 STEP:  39 TIME =     0.03 SECS, INTEGRAL =      1.11 TIME LEFT: 172798.87
 STEP:  40 TIME =     0.03 SECS, INTEGRAL =      1.14 TIME LEFT: 172798.84
 STEP:  41 TIME =     0.02 SECS, INTEGRAL =      1.16 TIME LEFT: 172798.82
 STEP:  42 TIME =     0.03 SECS, INTEGRAL =      1.19 TIME LEFT: 172798.79
 STEP:  43 TIME =     0.03 SECS, INTEGRAL =      1.22 TIME LEFT: 172798.76
 STEP:  44 TIME =     0.02 SECS, INTEGRAL =      1.24 TIME LEFT: 172798.74
 STEP:  45 TIME =     0.03 SECS, INTEGRAL =      1.27 TIME LEFT: 172798.71
 STEP:  46 TIME =     0.03 SECS, INTEGRAL =      1.30 TIME LEFT: 172798.68
 STEP:  47 TIME =     0.03 SECS, INTEGRAL =      1.33 TIME LEFT: 172798.65
 STEP:  48 TIME =     0.03 SECS, INTEGRAL =      1.36 TIME LEFT: 172798.62
 STEP:  49 TIME =     0.04 SECS, INTEGRAL =      1.40 TIME LEFT: 172798.58
 STEP:  50 TIME =     0.04 SECS, INTEGRAL =      1.43 TIME LEFT: 172798.55
 STEP:  51 TIME =     0.04 SECS, INTEGRAL =      1.47 TIME LEFT: 172798.51
 STEP:  52 TIME =     0.03 SECS, INTEGRAL =      1.50 TIME LEFT: 172798.48
 STEP:  53 TIME =     0.02 SECS, INTEGRAL =      1.52 TIME LEFT: 172798.46
 STEP:  54 TIME =     0.03 SECS, INTEGRAL =      1.55 TIME LEFT: 172798.43
 STEP:  55 TIME =     0.02 SECS, INTEGRAL =      1.57 TIME LEFT: 172798.41
 STEP:  56 TIME =     0.03 SECS, INTEGRAL =      1.60 TIME LEFT: 172798.38
 STEP:  57 TIME =     0.03 SECS, INTEGRAL =      1.62 TIME LEFT: 172798.36
 STEP:  58 TIME =     0.03 SECS, INTEGRAL =      1.66 TIME LEFT: 172798.32
 STEP:  59 TIME =     0.03 SECS, INTEGRAL =      1.69 TIME LEFT: 172798.29
 STEP:  60 TIME =     0.03 SECS, INTEGRAL =      1.72 TIME LEFT: 172798.26
 STEP:  61 TIME =     0.02 SECS, INTEGRAL =      1.74 TIME LEFT: 172798.24
 STEP:  62 TIME =     0.03 SECS, INTEGRAL =      1.77 TIME LEFT: 172798.21
 STEP:  63 TIME =     0.02 SECS, INTEGRAL =      1.79 TIME LEFT: 172798.19
 STEP:  64 TIME =     0.03 SECS, INTEGRAL =      1.82 TIME LEFT: 172798.16
 STEP:  65 TIME =     0.03 SECS, INTEGRAL =      1.85 TIME LEFT: 172798.13
 STEP:  66 TIME =     0.02 SECS, INTEGRAL =      1.87 TIME LEFT: 172798.11
 STEP:  67 TIME =     0.03 SECS, INTEGRAL =      1.90 TIME LEFT: 172798.08
 STEP:  68 TIME =     0.03 SECS, INTEGRAL =      1.93 TIME LEFT: 172798.05
 STEP:  69 TIME =     0.02 SECS, INTEGRAL =      1.95 TIME LEFT: 172798.03
 STEP:  70 TIME =     0.02 SECS, INTEGRAL =      1.97 TIME LEFT: 172798.01
 STEP:  71 TIME =     0.03 SECS, INTEGRAL =      2.00 TIME LEFT: 172797.98
 STEP:  72 TIME =     0.03 SECS, INTEGRAL =      2.03 TIME LEFT: 172797.95
 STEP:  73 TIME =     0.03 SECS, INTEGRAL =      2.06 TIME LEFT: 172797.92
 STEP:  74 TIME =     0.03 SECS, INTEGRAL =      2.09 TIME LEFT: 172797.89
 STEP:  75 TIME =     0.02 SECS, INTEGRAL =      2.11 TIME LEFT: 172797.87

(To convert to Hartree/Bohr^2, multiply by (10^(-21) x N x a0^2)/(4.184 x 627.51) =  0.0642)


           FORCE MATRIX IN MILLIDYNES/ANGSTROM


                  C  1       H  2       C  3       H  4       C  5       H  6
 ------------------------------------------------------------------------------
     C    1  14.287566
     H    2   3.374853   4.268005
     C    3   6.825733   0.762071  14.987032
     H    4   0.782129   0.085451   3.437605   4.358782
     C    5   2.170283   0.177262   5.555099   0.766596  15.061427
     H    6   0.104347   0.006231   0.751077   0.032826   3.431199   4.325275
     C    7   1.364436   0.152300   2.303682   0.095806   6.879185   0.766307
     H    8   0.166124   0.029313   0.208426   0.006104   0.798341   0.083253
     H    9   0.024911   0.005846   0.098401   0.007654   0.756362   0.045539
     C   10   3.919526   0.674778   0.858879   0.054701   0.129151   0.013491
     H   11   0.728365   0.020761   0.040791   0.002828   0.016369   0.001981
     H   12   0.738869   0.018027   0.031009   0.014148   0.018531   0.002156
     H   13   0.730176   0.038303   0.039032   0.017241   0.028426   0.002667
     O   14   0.125249   0.008779   0.075795   0.018865   0.061974   0.021590
     C   15   0.231614   0.023611   0.183044   0.033131   0.189424   0.031307
     C   16   0.419205   0.034476   0.242018   0.034814   0.255912   0.043289
     C   17   1.561885   0.158000   1.699447   0.041390   2.061082   0.071656
     O   18   0.037595   0.007430   0.042448   0.009372   0.052282   0.017735
     C   19   1.778913   0.417107   1.839415   0.045346   1.638622   0.055712
     O   20   0.094137   0.008896   0.100888   0.018361   0.084855   0.011457
     H   21   0.400326   0.029030   0.176648   0.006035   0.170138   0.006932
     C   22   0.152531   0.019023   0.165963   0.009505   0.178374   0.012182
     H   23   0.026374   0.002630   0.025144   0.000892   0.027688   0.001258
     H   24   0.013004   0.002974   0.013422   0.001955   0.014944   0.002568
     H   25   0.010254   0.004719   0.011972   0.001935   0.011015   0.001929


                  C  7       H  8       H  9       C 10       H 11       H 12
 ------------------------------------------------------------------------------
     C    7  13.072113
     H    8   3.464486   4.232734
     H    9   3.518031   0.444662   4.263007
     C   10   0.062789   0.010717   0.009260  11.629532
     H   11   0.013244   0.002480   0.001572   3.424888   4.216989
     H   12   0.009570   0.002134   0.001165   3.346942   0.457895   4.166076
     H   13   0.027703   0.003436   0.002236   3.328643   0.449826   0.454236
     O   14   0.105035   0.008112   0.016145   0.053750   0.011478   0.006758
     C   15   0.389152   0.028491   0.074461   0.047916   0.009818   0.008277
     C   16   0.377430   0.039012   0.021801   0.142608   0.026966   0.019163
     C   17   2.274270   0.512885   0.204945   0.050105   0.011625   0.008282
     O   18   0.058903   0.008644   0.031028   0.021524   0.005098   0.003881
     C   19   1.780958   0.182323   0.036763   0.194384   0.014159   0.016735
     O   20   0.098664   0.014253   0.007488   0.098103   0.013024   0.010634
     H   21   0.176004   0.017566   0.004904   0.021521   0.016906   0.003152
     C   22   0.493035   0.027796   0.016806   0.019599   0.005368   0.003385
     H   23   0.045021   0.003655   0.003115   0.003714   0.001083   0.000714
     H   24   0.040515   0.019547   0.025731   0.004581   0.001200   0.000986
     H   25   0.013659   0.017012   0.004324   0.006408   0.001894   0.001153


                  H 13       O 14       C 15       C 16       C 17       O 18
 ------------------------------------------------------------------------------
     H   13   4.126717
     O   14   0.032827   8.975057
     C   15   0.025498   3.580401  18.542614
     C   16   0.109047   3.203176   2.375692  18.785282
     C   17   0.025885   1.145032   2.796650   1.506456  14.489983
     O   18   0.008870   1.856765  12.767821   0.441527   1.010728  14.784799
     C   19   0.036980   1.247613   1.230228   3.487135   6.117307   0.121178
     O   20   0.056129   1.831658   0.422641  12.645703   0.146023   0.127892
     H   21   0.009119   0.058229   0.088121   0.613216   0.744228   0.014753
     C   22   0.006204   0.123368   0.508129   0.132445   4.015109   0.053829
     H   23   0.001295   0.025914   0.056728   0.028480   0.744412   0.019467
     H   24   0.001317   0.024375   0.054386   0.025535   0.702755   0.024914
     H   25   0.001403   0.015715   0.037072   0.019804   0.736241   0.005708


                  C 19       O 20       H 21       C 22       H 23       H 24
 ------------------------------------------------------------------------------
     C   19  13.460057
     O   20   1.137965  14.688460
     H   21   3.542920   0.035997   4.370863
     C   22   0.740517   0.034819   0.047919  11.640413
     H   23   0.042077   0.009278   0.010078   3.329863   4.143774
     H   24   0.045042   0.004999   0.003813   3.382327   0.455627   4.183729
     H   25   0.017704   0.006173   0.013134   3.410746   0.453177   0.454893


                  H 25
 ------------------
     H   25   4.214048


          HEAT OF FORMATION =     -60.896084 KCALS/MOLE

          ZERO POINT ENERGY     117.450 KCAL/MOL

         NOTE: SYSTEM IS NOT A GROUND STATE, THEREFORE ZERO POINT
         ENERGY IS NOT MEANINGFULL. ZERO POINT ENERGY PRINTED
         DOES NOT INCLUDE THE  1 IMAGINARY FREQUENCIES


           NORMAL COORDINATE ANALYSIS (Total motion = 1 Angstrom)


   Root No.       1         2         3         4         5         6         7         8

                 1 A       2 A       3 A       4 A       5 A       6 A       7 A       8 A   

                -731.3      57.6     111.2     118.4     121.2     129.7     144.6     172.1
  
           1    0.0145    0.0212    0.0144   -0.0074    0.0070   -0.0103    0.0083   -0.0077
           2   -0.0187   -0.0089    0.0085    0.0054    0.0132   -0.0031    0.0121   -0.0145
           3   -0.0799   -0.0043    0.0047   -0.0084   -0.0129   -0.0141   -0.0103    0.0315
           4    0.0166    0.0214    0.0145   -0.0073    0.0074   -0.0103    0.0086   -0.0083
           5    0.0103    0.0150    0.0163    0.0148    0.0229    0.0035    0.0144   -0.0158
           6    0.0484   -0.0127   -0.0097    0.0032   -0.0082   -0.0003   -0.0088    0.0067
           7   -0.0011   -0.0042    0.0071   -0.0173   -0.0026   -0.0172    0.0083   -0.0136
           8    0.0280   -0.0236    0.0042    0.0002    0.0080   -0.0064    0.0128   -0.0195
           9   -0.0073    0.0063    0.0028   -0.0219   -0.0141   -0.0319    0.0084    0.0034
          10    0.0127   -0.0015    0.0097   -0.0205   -0.0027   -0.0219    0.0112   -0.0129
          11   -0.0035   -0.0471    0.0006   -0.0062    0.0008   -0.0104    0.0104   -0.0167
          12    0.0418    0.0159    0.0111   -0.0329   -0.0150   -0.0479    0.0182    0.0062
          13   -0.0211   -0.0339   -0.0012   -0.0191   -0.0101   -0.0142    0.0012   -0.0176
          14   -0.0166   -0.0111    0.0034    0.0006    0.0104   -0.0069    0.0171   -0.0296
          15    0.0112    0.0032   -0.0073   -0.0218   -0.0169   -0.0291    0.0098   -0.0204
          16    0.0289   -0.0547   -0.0055   -0.0222   -0.0168   -0.0158   -0.0036   -0.0191
          17    0.0220   -0.0263   -0.0002   -0.0030    0.0045   -0.0097    0.0146   -0.0328
          18    0.0347    0.0055   -0.0112   -0.0326   -0.0251   -0.0429    0.0172   -0.0382
          19   -0.0008   -0.0366   -0.0025   -0.0131   -0.0079   -0.0055   -0.0036   -0.0130
          20   -0.0653    0.0171    0.0051    0.0033    0.0162   -0.0049    0.0229   -0.0347
          21   -0.0788   -0.0020   -0.0107   -0.0093   -0.0102   -0.0108    0.0012   -0.0182
          22    0.0225   -0.0207    0.0017   -0.0139   -0.0049   -0.0086    0.0013   -0.0117
          23    0.0410    0.0365    0.0120    0.0078    0.0231   -0.0011    0.0244   -0.0214
          24    0.0632   -0.0028   -0.0081    0.0003   -0.0059    0.0019   -0.0073    0.0042
          25   -0.0169   -0.0589   -0.0080   -0.0125   -0.0128    0.0004   -0.0105   -0.0094
          26   -0.0304    0.0228    0.0027    0.0034    0.0120   -0.0051    0.0202   -0.0301
          27   -0.0384   -0.0085   -0.0193   -0.0091   -0.0210   -0.0070   -0.0076   -0.0094
          28    0.0023    0.0533    0.0288    0.0004    0.0207   -0.0075    0.0110    0.0003
          29    0.0038   -0.0243    0.0090    0.0032    0.0086   -0.0036    0.0070   -0.0022
          30   -0.0134   -0.0013    0.0268   -0.0035   -0.0053   -0.0118   -0.0195    0.0780
          31   -0.0076    0.0755    0.1050    0.0070   -0.0302    0.0243    0.0094   -0.0295
          32   -0.0085   -0.0090    0.0260    0.0065    0.0019    0.0036    0.0096   -0.0140
          33    0.0042    0.0011    0.1878    0.0022   -0.1333    0.0549   -0.0368    0.0372
          34    0.0134    0.0527   -0.1252   -0.0015    0.1625   -0.0761    0.0229    0.0794
          35    0.0364   -0.0271    0.0892    0.0076   -0.0457    0.0270   -0.0074    0.0062
          36   -0.0125   -0.0014   -0.0024   -0.0038    0.0215   -0.0247   -0.0173    0.0931
          37   -0.0046    0.0575    0.1049    0.0023   -0.0449    0.0252    0.0072   -0.0357
          38   -0.0033   -0.0482   -0.0836   -0.0066    0.0635   -0.0411    0.0127    0.0144
          39   -0.0004   -0.0013   -0.0916   -0.0038    0.1063   -0.0640   -0.0125    0.1435
          40    0.0054    0.0023   -0.0024    0.0044    0.0011    0.0030   -0.0312    0.0059
          41   -0.0040    0.0163    0.0002    0.0073   -0.0035    0.0105    0.0828    0.0194
          42   -0.0014   -0.0082   -0.0122    0.0271   -0.0004    0.0327    0.1667    0.0042
          43    0.0029    0.0121   -0.0008    0.0065    0.0034    0.0054   -0.0030    0.0033
          44   -0.0015   -0.0015    0.0028    0.0012   -0.0027    0.0012    0.0033    0.0132
          45    0.0011   -0.0151    0.0090    0.0115    0.0135    0.0100    0.0257   -0.0041
          46    0.0063   -0.0149   -0.0101    0.0077   -0.0064    0.0078   -0.0102    0.0098
          47   -0.0027    0.0214   -0.0034   -0.0004   -0.0066    0.0027    0.0037    0.0076
          48    0.0008    0.0053   -0.0170    0.0107   -0.0047    0.0161    0.0109   -0.0082
          49    0.0097   -0.0024   -0.0065    0.0096   -0.0010    0.0098   -0.0048    0.0056
          50    0.0725   -0.0045   -0.0092   -0.0063   -0.0156   -0.0063   -0.0090    0.0104
          51    0.0846    0.0016    0.0021   -0.0048   -0.0004   -0.0084    0.0061   -0.0024
          52   -0.0015    0.0275    0.0022    0.0026    0.0039    0.0023    0.0182    0.0138
          53   -0.0011   -0.0128    0.0180    0.0046    0.0139    0.0046   -0.0577    0.0128
          54   -0.0021   -0.0348    0.0370    0.0175    0.0438    0.0158   -0.0843   -0.0052
          55   -0.0162   -0.0137   -0.0141    0.0099   -0.0066    0.0122   -0.0088    0.0058
          56    0.0096    0.0019   -0.0051   -0.0057   -0.0107   -0.0081   -0.0050    0.0045
          57    0.0872    0.0014    0.0023   -0.0016    0.0026   -0.0090    0.0082   -0.0107
          58    0.0000   -0.0257   -0.0104    0.0082   -0.0081    0.0053    0.0145    0.0076
          59    0.0002    0.0393   -0.0092   -0.0008   -0.0062    0.0099   -0.0616    0.0079
          60   -0.0015    0.0211   -0.0408    0.0129   -0.0134    0.0337   -0.1227   -0.0210
          61    0.0120   -0.0251   -0.0199    0.0088   -0.0110    0.0118   -0.0131    0.0054
          62   -0.0065   -0.0055   -0.0074   -0.0065   -0.0139   -0.0089   -0.0102    0.0078
          63   -0.0815   -0.0073    0.0068   -0.0042   -0.0007   -0.0147   -0.0047   -0.0015
          64   -0.0057    0.0071   -0.0059    0.0062    0.0028    0.0091   -0.0027   -0.0038
          65   -0.0038   -0.0124   -0.0245   -0.0141   -0.0249    0.0041   -0.0185    0.0156
          66   -0.0017    0.0266    0.0026   -0.0156    0.0114   -0.0069    0.0142   -0.0302
          67   -0.0390    0.0242   -0.0081   -0.0330    0.0177    0.0295    0.0084   -0.0224
          68   -0.0186   -0.0058   -0.0312    0.1792   -0.0763   -0.1053   -0.0663   -0.0041
          69    0.0066    0.0250    0.0045   -0.0701    0.0260    0.0239    0.0275   -0.0250
          70    0.0201    0.0144    0.0038    0.0904   -0.0105   -0.0437   -0.0152   -0.0169
          71   -0.0135   -0.0161   -0.0286   -0.0582   -0.0174    0.0314   -0.0113    0.0224
          72   -0.0252    0.0407   -0.0025    0.1577   -0.0309   -0.1057   -0.0281   -0.0571
          73   -0.0101   -0.0078   -0.0127   -0.0399    0.0056    0.0402    0.0012    0.0150
          74   -0.0102   -0.0209   -0.0282   -0.1637    0.0084    0.0923    0.0132    0.0340
          75   -0.0066    0.0349    0.0069   -0.1473    0.0508    0.0657    0.0497   -0.0317


   Root No.       9        10        11        12        13        14        15        16

                 9 A      10 A      11 A      12 A      13 A      14 A      15 A      16 A   

                 214.4     241.0     264.3     299.1     311.3     369.1     401.8     437.7
  
           1    0.0025    0.0137    0.0135    0.0234    0.0146   -0.0084    0.0328    0.0445
           2   -0.0063   -0.0206   -0.0094   -0.0277    0.0066   -0.0026    0.0093    0.0087
           3    0.0140   -0.0129   -0.0288    0.0005    0.0634    0.0001   -0.0166    0.0118
           4    0.0008    0.0118    0.0124    0.0212    0.0134   -0.0078    0.0299    0.0409
           5   -0.0257   -0.0471   -0.0258   -0.0383    0.0050   -0.0112   -0.0070    0.0172
           6   -0.0085   -0.0362   -0.0383    0.0408    0.0776   -0.0327   -0.0488    0.0639
           7    0.0170    0.0279    0.0209    0.0197    0.0147    0.0050    0.0127   -0.0010
           8    0.0019   -0.0121   -0.0030   -0.0301    0.0035    0.0035   -0.0016   -0.0180
           9    0.0530   -0.0026   -0.0033   -0.0385    0.0092    0.0002    0.0294   -0.0209
          10    0.0306    0.0335    0.0272    0.0034    0.0081    0.0099    0.0308   -0.0171
          11    0.0050   -0.0086   -0.0062   -0.0509    0.0098    0.0180   -0.0206   -0.0616
          12    0.1050    0.0218    0.0217   -0.0866   -0.0120    0.0159    0.0903   -0.0758
          13   -0.0173    0.0077    0.0019    0.0006    0.0034    0.0080   -0.0336   -0.0098
          14    0.0023   -0.0111    0.0037   -0.0065   -0.0162   -0.0050   -0.0093    0.0012
          15    0.0211   -0.0163   -0.0023   -0.0072   -0.0512   -0.0204   -0.0286    0.0238
          16   -0.0349   -0.0064   -0.0085   -0.0338   -0.0205    0.0065   -0.0606    0.0117
          17   -0.0066   -0.0209   -0.0029   -0.0312   -0.0410   -0.0078   -0.0418    0.0194
          18    0.0462   -0.0171    0.0055   -0.0134   -0.1218   -0.0360   -0.1123    0.0736
          19   -0.0425    0.0029   -0.0023    0.0085    0.0131    0.0089   -0.0018   -0.0206
          20    0.0222    0.0057    0.0178    0.0562   -0.0085   -0.0070   -0.0177   -0.0341
          21   -0.0391   -0.0266   -0.0083    0.0210   -0.0278   -0.0157    0.0477   -0.0027
          22   -0.0114    0.0145    0.0076    0.0260    0.0188    0.0070   -0.0303   -0.0374
          23    0.0536    0.0253    0.0293    0.0693    0.0205   -0.0061   -0.0278   -0.0696
          24   -0.0511   -0.0168   -0.0105    0.0011    0.0101   -0.0085    0.0909   -0.0246
          25   -0.0873   -0.0157   -0.0203   -0.0213    0.0061    0.0124    0.0407    0.0044
          26    0.0266    0.0103    0.0185    0.0683   -0.0136   -0.0091   -0.0340   -0.0358
          27   -0.0659   -0.0335   -0.0211    0.0209   -0.0440   -0.0180    0.0549    0.0151
          28   -0.0309   -0.0235   -0.0133   -0.0242   -0.0026    0.0017   -0.0035   -0.0042
          29   -0.0006    0.0077    0.0149   -0.0055   -0.0145   -0.0079    0.0325    0.0300
          30   -0.0158    0.0199    0.0086    0.0101   -0.0278   -0.0033   -0.0127   -0.0079
          31   -0.0465   -0.0555   -0.0360   -0.0574    0.0011    0.0094   -0.0358   -0.0427
          32   -0.0108   -0.0184   -0.0062   -0.0310   -0.0033   -0.0015    0.0085    0.0032
          33   -0.0176    0.0383    0.0338    0.0231   -0.0684   -0.0094   -0.0020   -0.0038
          34   -0.0561   -0.0185   -0.0091   -0.0279   -0.0405    0.0004   -0.0160   -0.0237
          35   -0.0147    0.0426    0.0542    0.0162   -0.0903   -0.0158    0.0479    0.0322
          36   -0.0207    0.0208    0.0094    0.0093   -0.0354   -0.0039   -0.0150   -0.0111
          37   -0.0247   -0.0319   -0.0194   -0.0286    0.0122    0.0036   -0.0065   -0.0056
          38    0.0278    0.0285    0.0239    0.0251    0.0207   -0.0158    0.0644    0.0766
          39   -0.0392    0.0284    0.0180    0.0087   -0.0712   -0.0052   -0.0203   -0.0238
          40    0.0093   -0.0066   -0.0024    0.0018   -0.0024   -0.0599    0.0020   -0.0083
          41    0.0007    0.0052   -0.0071   -0.0023   -0.0010    0.0289   -0.0002    0.0049
          42    0.0019    0.0084    0.0039   -0.0086   -0.0001   -0.0243   -0.0024   -0.0008
          43    0.0083   -0.0068    0.0028    0.0019   -0.0066   -0.0343    0.0014    0.0013
          44   -0.0004    0.0062   -0.0197    0.0064   -0.0033    0.0214    0.0059   -0.0096
          45   -0.0034   -0.0068    0.0132    0.0061    0.0022   -0.0077    0.0071   -0.0215
          46    0.0123   -0.0005   -0.0121   -0.0015   -0.0027   -0.0255    0.0016   -0.0083
          47   -0.0004    0.0000   -0.0140    0.0102    0.0004    0.0187   -0.0010    0.0143
          48    0.0020   -0.0072   -0.0026    0.0099    0.0097   -0.0126   -0.0068    0.0126
          49    0.0086   -0.0001   -0.0030   -0.0045   -0.0040   -0.0431   -0.0001   -0.0010
          50   -0.0062    0.0085   -0.0223    0.0105    0.0010    0.0229    0.0041   -0.0156
          51   -0.0130   -0.0087    0.0077    0.0149    0.0135   -0.0010    0.0081   -0.0289
          52    0.0109   -0.0340    0.0410    0.0014    0.0010    0.1083   -0.0034    0.0019
          53    0.0076    0.0093   -0.0201   -0.0000   -0.0019    0.0218   -0.0013    0.0061
          54    0.0111   -0.0034    0.0157   -0.0055    0.0048    0.0041   -0.0061    0.0077
          55    0.0105    0.0010   -0.0067   -0.0018   -0.0054   -0.0350    0.0021   -0.0065
          56   -0.0020   -0.0005   -0.0260    0.0168    0.0056    0.0218   -0.0045    0.0100
          57   -0.0029   -0.0239   -0.0043    0.0318    0.0200   -0.0247   -0.0114    0.0219
          58    0.0138    0.0012   -0.0258    0.0060   -0.0126    0.0751    0.0032    0.0054
          59   -0.0018    0.0006    0.0035   -0.0027    0.0071   -0.0893   -0.0001   -0.0078
          60    0.0031    0.0055   -0.0023   -0.0046   -0.0118    0.0620    0.0040   -0.0037
          61    0.0106    0.0035   -0.0140   -0.0005   -0.0057   -0.0407    0.0020   -0.0184
          62   -0.0003   -0.0009   -0.0333    0.0137    0.0123    0.0183   -0.0082    0.0066
          63    0.0049   -0.0344   -0.0230    0.0200    0.0489   -0.0257   -0.0298    0.0389
          64    0.0042    0.0264   -0.0105   -0.0185   -0.0043   -0.0344   -0.0076    0.0105
          65   -0.0181   -0.0027    0.0620   -0.0197    0.0200   -0.0070   -0.0102    0.0060
          66   -0.0261    0.0548   -0.0010   -0.0184    0.0133    0.0299   -0.0077    0.0003
          67   -0.0064    0.0764   -0.0058   -0.0529   -0.0036   -0.0163   -0.0258    0.0471
          68   -0.0427    0.0148    0.1141   -0.0404    0.0398   -0.0080   -0.0225    0.0182
          69   -0.0196    0.0517   -0.0155   -0.0140    0.0079    0.0308   -0.0053   -0.0014
          70    0.0032    0.0474   -0.0619   -0.0032   -0.0101   -0.0047    0.0001   -0.0086
          71   -0.0168   -0.0139    0.0847   -0.0257    0.0222   -0.0208   -0.0135    0.0145
          72   -0.0510    0.0940    0.0335   -0.0467    0.0274    0.0391   -0.0220    0.0223
          73    0.0095   -0.0145    0.0305   -0.0146    0.0011   -0.0691   -0.0055    0.0083
          74   -0.0062   -0.0260    0.0759   -0.0211    0.0161   -0.0287   -0.0108    0.0144
          75   -0.0177    0.0795   -0.0383   -0.0255    0.0010    0.0488   -0.0111    0.0138


   Root No.      17        18        19        20        21        22        23        24

                17 A      18 A      19 A      20 A      21 A      22 A      23 A      24 A   

                 461.6     551.8     588.7     619.7     621.6     650.9     699.2     780.3
  
           1   -0.0264    0.0049    0.0025   -0.0004   -0.0049   -0.0020   -0.0003    0.0007
           2   -0.0133    0.0046    0.0062   -0.0208   -0.0066    0.0072   -0.0020    0.0030
           3   -0.0353    0.0191    0.0100    0.0105   -0.0117   -0.0098   -0.0154    0.0060
           4   -0.0227    0.0037    0.0010    0.0006   -0.0033   -0.0024    0.0016    0.0006
           5   -0.0175    0.0060    0.0162   -0.0694   -0.0136    0.0066    0.0132    0.0039
           6   -0.0345    0.0099   -0.0006    0.0098    0.0038   -0.0697    0.0432   -0.0463
           7    0.0033   -0.0017   -0.0158    0.0523    0.0117   -0.0159   -0.0024   -0.0103
           8    0.0095    0.0001   -0.0063    0.0187    0.0058   -0.0118   -0.0029   -0.0092
           9    0.0232   -0.0062    0.0056   -0.0210   -0.0037   -0.0021    0.0080   -0.0043
          10    0.0256   -0.0105   -0.0190    0.0521    0.0154   -0.0032    0.0053    0.0243
          11    0.0375   -0.0068   -0.0111    0.0098    0.0084    0.0046    0.0019    0.0212
          12    0.0970   -0.0344   -0.0083   -0.0019    0.0120    0.0339    0.0306    0.1087
          13   -0.0013    0.0014    0.0009   -0.0289   -0.0038    0.0086    0.0016   -0.0021
          14   -0.0079    0.0028   -0.0181    0.0699    0.0164   -0.0185   -0.0125   -0.0204
          15   -0.0235    0.0060    0.0076   -0.0141   -0.0033   -0.0071   -0.0096   -0.0274
          16   -0.0172    0.0048   -0.0031   -0.0210   -0.0023    0.0249    0.0050    0.0417
          17   -0.0247    0.0065   -0.0205    0.0717    0.0162   -0.0003   -0.0080    0.0286
          18   -0.0721    0.0159   -0.0078    0.0337    0.0015    0.0362    0.0065    0.1162
          19    0.0115   -0.0040    0.0075   -0.0249   -0.0046   -0.0069   -0.0020   -0.0004
          20    0.0080   -0.0013    0.0074   -0.0102   -0.0034   -0.0126   -0.0012    0.0149
          21    0.0147   -0.0120    0.0070   -0.0006    0.0019   -0.0242   -0.0074   -0.0160
          22    0.0021    0.0112    0.0342   -0.1145   -0.0219   -0.0000   -0.0141   -0.0402
          23   -0.0020    0.0278    0.0518   -0.1094   -0.0207   -0.0360   -0.0488   -0.1088
          24    0.0134    0.0064    0.0221    0.0398    0.0116   -0.0764   -0.0636   -0.1267
          25    0.0154   -0.0212   -0.0262    0.1052    0.0146   -0.0128    0.0115    0.0774
          26    0.0004   -0.0037    0.0270   -0.0522   -0.0249   -0.0029    0.0081    0.0955
          27    0.0072   -0.0309    0.0124    0.0341   -0.0187   -0.0139    0.0219    0.1867
          28   -0.0005    0.0014    0.0007   -0.0067   -0.0006    0.0025    0.0003    0.0029
          29   -0.0199    0.0027    0.0091   -0.0374   -0.0092    0.0159   -0.0004    0.0069
          30    0.0052    0.0004    0.0004    0.0115    0.0024   -0.0076   -0.0024   -0.0002
          31    0.0173   -0.0019   -0.0040    0.0057    0.0030    0.0006   -0.0044   -0.0031
          32   -0.0105    0.0039    0.0067   -0.0278   -0.0075    0.0130   -0.0057    0.0056
          33    0.0187   -0.0165   -0.0032    0.0035    0.0064   -0.0015    0.0114   -0.0137
          34    0.0253   -0.0093   -0.0057   -0.0055    0.0117    0.0041    0.0116   -0.0129
          35    0.0075   -0.0217    0.0028   -0.0523    0.0016    0.0248    0.0232   -0.0152
          36    0.0098   -0.0025   -0.0004    0.0098    0.0045   -0.0062    0.0004   -0.0043
          37   -0.0045    0.0047    0.0009   -0.0009   -0.0023   -0.0000   -0.0043    0.0056
          38   -0.0563    0.0173    0.0177   -0.0453   -0.0178    0.0117   -0.0044    0.0240
          39    0.0300   -0.0150   -0.0051    0.0067    0.0105   -0.0018    0.0100   -0.0170
          40   -0.0029    0.0090   -0.0545   -0.0017   -0.0800    0.0098   -0.0075    0.0076
          41    0.0053    0.0336   -0.0090   -0.0068    0.0297   -0.0333   -0.0021   -0.0004
          42   -0.0059   -0.0231   -0.0051   -0.0029   -0.0254   -0.0459   -0.0015    0.0053
          43    0.0179    0.0589   -0.0242   -0.0006   -0.0611   -0.0269   -0.0173    0.0141
          44   -0.0174    0.0047   -0.0355    0.0049   -0.0628    0.0539    0.0532   -0.0146
          45   -0.0283    0.0446    0.0214    0.0166    0.0097    0.1066    0.0870   -0.0057
          46   -0.0210   -0.0395   -0.0256   -0.0081    0.0765   -0.0055    0.0118   -0.0015
          47    0.0361    0.0507    0.0033    0.0000    0.0650    0.0537   -0.0386    0.0039
          48    0.0320   -0.0481   -0.0097    0.0058   -0.0334    0.1201   -0.0812   -0.0060
          49    0.0108    0.0289    0.0514    0.0084   -0.0137   -0.0043   -0.0042   -0.0026
          50   -0.0261   -0.0352    0.0468    0.0105   -0.0291   -0.0082   -0.0231    0.0116
          51   -0.0362    0.0462    0.0026    0.0010    0.0087   -0.0132   -0.0469    0.0091
          52   -0.0129   -0.0480    0.0145    0.0031   -0.0119    0.0055    0.0058   -0.0022
          53    0.0040   -0.0235   -0.0433   -0.0059   -0.0618   -0.0186   -0.0066   -0.0104
          54    0.0105   -0.0062    0.0259   -0.0005    0.0358   -0.0224   -0.0234    0.0093
          55   -0.0160   -0.0409   -0.0010   -0.0009    0.0466    0.0148   -0.0031   -0.0031
          56    0.0269   -0.0214    0.0550    0.0107   -0.0333   -0.0048    0.0233    0.0101
          57    0.0535   -0.0184   -0.0299   -0.0066    0.0217   -0.0201    0.0608   -0.0014
          58    0.0112    0.0311   -0.0251   -0.0079    0.0840    0.0105   -0.0059    0.0015
          59   -0.0157   -0.0253   -0.0034   -0.0049    0.0908   -0.0014    0.0098    0.0015
          60   -0.0086    0.0227   -0.0027   -0.0012   -0.0249   -0.0343    0.0203    0.0005
          61   -0.0441   -0.1263   -0.0031    0.0005    0.0078   -0.0106    0.0177    0.0014
          62    0.0085   -0.0621    0.0533    0.0095   -0.0472   -0.0315    0.0485    0.0158
          63    0.0507   -0.0249   -0.0355   -0.0173    0.0389   -0.0971    0.1647    0.0127
          64    0.0211    0.0127    0.0747    0.0134   -0.0301    0.0000    0.0161   -0.0111
          65    0.0104    0.0084   -0.0001    0.0005   -0.0107   -0.0021   -0.0023    0.0015
          66   -0.0102   -0.0076   -0.0291   -0.0054    0.0168    0.0065   -0.0091    0.0075
          67    0.0613   -0.0344    0.0449    0.0063   -0.0241    0.0257    0.0865   -0.0320
          68    0.0312    0.0225   -0.0314   -0.0069   -0.0014   -0.0015    0.0128   -0.0063
          69   -0.0143   -0.0133   -0.0190   -0.0031    0.0133    0.0069   -0.0091    0.0075
          70   -0.0121   -0.0273    0.1144    0.0218   -0.0382   -0.0003   -0.0078   -0.0004
          71    0.0256    0.0271   -0.0200   -0.0038   -0.0067   -0.0022    0.0083   -0.0029
          72    0.0175   -0.0200   -0.0545   -0.0113    0.0229    0.0154    0.0268   -0.0062
          73    0.0306    0.0697    0.0502    0.0086   -0.0249   -0.0125    0.0019   -0.0122
          74    0.0267    0.0317   -0.0164   -0.0022   -0.0098   -0.0036    0.0089   -0.0069
          75   -0.0024   -0.0558   -0.0193   -0.0031    0.0144    0.0238    0.0254   -0.0016


   Root No.      25        26        27        28        29        30        31        32

                25 A      26 A      27 A      28 A      29 A      30 A      31 A      32 A   

                 849.0     899.8     916.6     963.9     978.8    1016.2    1018.5    1032.9
  
           1   -0.0039   -0.0024    0.0060    0.0040    0.0020   -0.0024   -0.0064   -0.0032
           2   -0.0000    0.0003    0.0002   -0.0020   -0.0022    0.0006    0.0007   -0.0005
           3   -0.0068   -0.0000    0.0107   -0.0010   -0.0026    0.0042   -0.0000   -0.0069
           4   -0.0035   -0.0017    0.0041    0.0044    0.0023   -0.0018   -0.0036   -0.0028
           5   -0.0155   -0.0232    0.0082    0.0403    0.0460   -0.0311   -0.0599   -0.0109
           6   -0.0489   -0.1465   -0.0088    0.1671    0.1669   -0.0492    0.0507   -0.0616
           7    0.0051   -0.0024   -0.0109   -0.0009   -0.0017    0.0104    0.0281   -0.0011
           8   -0.0045   -0.0145    0.0007    0.0003    0.0006    0.0029   -0.0083   -0.0038
           9    0.0042   -0.0249   -0.0254   -0.0061    0.0017    0.0282   -0.0154    0.0158
          10   -0.0143    0.0309    0.0344    0.0285    0.0165   -0.0379    0.0376   -0.0264
          11   -0.0133    0.0143    0.0278    0.0193    0.0145   -0.0367   -0.0187   -0.0237
          12   -0.0592    0.0871    0.1265    0.0914    0.0623   -0.1311    0.0339   -0.0693
          13    0.0074    0.0019   -0.0067   -0.0058   -0.0044   -0.0132   -0.0019    0.0003
          14    0.0050    0.0034    0.0002   -0.0030   -0.0054   -0.0155   -0.0099   -0.0078
          15    0.0097   -0.0027   -0.0044   -0.0105   -0.0133   -0.0337    0.0007   -0.0069
          16   -0.0221    0.0170    0.0362    0.0263    0.0277    0.0595   -0.0183    0.0015
          17   -0.0256    0.0188    0.0390    0.0285    0.0265    0.0604   -0.0210   -0.0007
          18   -0.0647    0.0500    0.0678    0.0626    0.0722    0.1836    0.0125    0.0512
          19   -0.0064   -0.0027    0.0084    0.0040    0.0038    0.0058   -0.0071    0.0023
          20   -0.0137   -0.0077   -0.0016    0.0007    0.0028    0.0048   -0.0135    0.0127
          21   -0.0037    0.0044    0.0118    0.0065    0.0028    0.0034    0.0105   -0.0043
          22   -0.0027    0.0075    0.0301    0.0091    0.0001   -0.0034    0.0261   -0.0358
          23   -0.0107    0.0226    0.0682    0.0259    0.0200    0.0495    0.0065   -0.0198
          24   -0.0068    0.0323    0.0725    0.0327    0.0405    0.0999   -0.0385    0.0360
          25   -0.0251   -0.0267   -0.0331   -0.0129    0.0039    0.0126   -0.0698    0.0567
          26   -0.0571   -0.0517   -0.0156   -0.0063   -0.0190   -0.0145    0.0186   -0.0346
          27   -0.0942   -0.0912   -0.0470   -0.0203   -0.0327   -0.0215    0.0104   -0.0350
          28    0.0005    0.0048    0.0016   -0.0034   -0.0006   -0.0048   -0.0300    0.0009
          29    0.0022    0.0057   -0.0024   -0.0052   -0.0069    0.0059    0.0392    0.0072
          30   -0.0041   -0.0013    0.0159   -0.0133   -0.0134   -0.0086    0.0002    0.0098
          31    0.0014   -0.0055   -0.0074   -0.0053   -0.0186    0.0264    0.1766    0.0126
          32    0.0005    0.0008    0.0012   -0.0165   -0.0283    0.0222    0.1775    0.0216
          33    0.0078   -0.0114   -0.0316    0.0391    0.0423    0.0037   -0.0745   -0.0294
          34    0.0135   -0.0140   -0.0470    0.0391    0.0440    0.0266    0.0475   -0.0264
          35    0.0237   -0.0159   -0.0806    0.0729    0.0858    0.0274   -0.0741   -0.0551
          36   -0.0000   -0.0061   -0.0002    0.0018    0.0022    0.0007    0.0106   -0.0008
          37   -0.0037    0.0051    0.0164   -0.0179   -0.0177   -0.0076    0.0064    0.0126
          38   -0.0105    0.0258    0.0447   -0.0378   -0.0280   -0.0408   -0.1565    0.0192
          39    0.0103   -0.0163   -0.0410    0.0399    0.0357    0.0222    0.0250   -0.0245
          40    0.0343    0.0001    0.0024    0.0156   -0.0172    0.0122   -0.0071   -0.0144
          41   -0.0092    0.0024   -0.0059    0.0605   -0.0410   -0.0001   -0.0039    0.0082
          42    0.0107   -0.0008    0.0042   -0.0303    0.0175    0.0024    0.0011   -0.0068
          43    0.0397   -0.0103    0.0060   -0.0074    0.0195   -0.0141    0.0082    0.0171
          44   -0.0245    0.0023   -0.0006   -0.0153    0.0113   -0.0029    0.0021    0.0026
          45    0.0190   -0.0034    0.0032    0.0084   -0.0040   -0.0004   -0.0004    0.0004
          46   -0.0078    0.0042   -0.0008   -0.0049   -0.0106    0.0084   -0.0048   -0.0093
          47    0.0156   -0.0052    0.0033   -0.0230    0.0283   -0.0058    0.0041    0.0036
          48   -0.0116    0.0084   -0.0096    0.0203   -0.0085    0.0012   -0.0035    0.0007
          49   -0.0198    0.0085   -0.0065   -0.0023    0.0003    0.0028    0.0000   -0.0043
          50    0.0284   -0.0060    0.0024    0.0055    0.0001   -0.0014   -0.0002   -0.0012
          51   -0.0282    0.0165   -0.0164   -0.0072    0.0032   -0.0018    0.0009    0.0020
          52   -0.0032   -0.0005    0.0010   -0.0087    0.0051    0.0004    0.0001   -0.0015
          53   -0.0386    0.0050   -0.0032   -0.0152    0.0100   -0.0030    0.0021    0.0037
          54    0.0207   -0.0025    0.0013    0.0066   -0.0044    0.0016   -0.0010   -0.0020
          55   -0.0056   -0.0032   -0.0013    0.0190    0.0060   -0.0189    0.0094    0.0252
          56    0.0480    0.0098    0.0004   -0.0095   -0.0091    0.0127    0.0001   -0.0253
          57   -0.0180   -0.0053    0.0095   -0.0111   -0.0201   -0.0029    0.0023    0.0150
          58    0.0053   -0.0010    0.0016   -0.0138    0.0035    0.0059   -0.0023   -0.0091
          59    0.0039   -0.0001    0.0020   -0.0175    0.0058    0.0041   -0.0007   -0.0072
          60   -0.0005   -0.0006    0.0006    0.0045   -0.0038   -0.0004    0.0002    0.0012
          61    0.0318   -0.0071    0.0016    0.0821   -0.0337   -0.0305    0.0208    0.0247
          62    0.0818    0.0444   -0.0192    0.0344   -0.0032    0.0026    0.0061   -0.0183
          63    0.0601    0.1979   -0.1066    0.0530    0.0931   -0.0161   -0.0040    0.0396
          64   -0.0465    0.0052   -0.0071   -0.0052   -0.0037   -0.0026   -0.0009    0.0017
          65    0.0095   -0.0008    0.0004    0.0023    0.0084   -0.0103   -0.0005    0.0272
          66    0.0075    0.0109   -0.0113   -0.0012    0.0013   -0.0033    0.0028   -0.0099
          67   -0.0087   -0.0705    0.0686    0.0067   -0.0237    0.0339   -0.0149    0.0007
          68   -0.0194   -0.0033    0.0047   -0.0043   -0.0205    0.0222   -0.0032   -0.0486
          69    0.0146    0.0046   -0.0058    0.0010    0.0073   -0.0089    0.0022    0.0115
          70    0.0122    0.0027   -0.0056    0.0121    0.0343   -0.0494   -0.0016    0.1266
          71   -0.0174    0.0006   -0.0005   -0.0062   -0.0121    0.0146   -0.0002   -0.0392
          72    0.0102   -0.0270    0.0275   -0.0016   -0.0117    0.0241   -0.0023   -0.0318
          73   -0.1112    0.0425   -0.0423   -0.0286   -0.0240    0.0188    0.0056   -0.0959
          74   -0.0254    0.0008    0.0007   -0.0087   -0.0135    0.0171   -0.0003   -0.0405
          75    0.0596   -0.0425    0.0416    0.0181    0.0046    0.0008   -0.0067    0.0489


   Root No.      33        34        35        36        37        38        39        40

                33 A      34 A      35 A      36 A      37 A      38 A      39 A      40 A   

                1035.4    1050.8    1058.2    1087.0    1135.0    1166.0    1213.2    1226.1
  
           1    0.0017    0.0004   -0.0040   -0.0018    0.0047    0.0574   -0.0019    0.0020
           2    0.0012    0.0014   -0.0037    0.0034    0.0026    0.0305    0.0044   -0.0000
           3   -0.0021   -0.0087   -0.0010    0.0387    0.0135   -0.0092   -0.0060   -0.0118
           4    0.0013   -0.0006   -0.0026   -0.0021    0.0036    0.0424   -0.0011    0.0025
           5   -0.0137   -0.0009    0.0082   -0.0523   -0.0161    0.0014    0.0070    0.0266
           6   -0.0285   -0.0238    0.0069   -0.1391   -0.0506   -0.0568   -0.0025    0.0519
           7    0.0120    0.0062   -0.0058   -0.0017   -0.0026   -0.0423    0.0038   -0.0004
           8    0.0145    0.0123   -0.0111   -0.0054    0.0032    0.0027   -0.0013   -0.0016
           9   -0.0032    0.0102   -0.0033   -0.0136   -0.0072    0.0126    0.0008    0.0014
          10    0.0024   -0.0149    0.0024    0.0093    0.0014   -0.0253    0.0001    0.0027
          11   -0.0017   -0.0011   -0.0058    0.0231    0.0014   -0.1722    0.0366   -0.0144
          12   -0.0292   -0.0597    0.0256    0.0252    0.0072    0.0507   -0.0156    0.0132
          13   -0.0092   -0.0072    0.0096    0.0020    0.0026   -0.0057    0.0066   -0.0003
          14    0.0074    0.0024   -0.0044    0.0042    0.0018    0.0175   -0.0024    0.0022
          15    0.0019   -0.0128    0.0189    0.0008    0.0149    0.0007    0.0000   -0.0013
          16    0.0149    0.0400   -0.0502   -0.0001   -0.0015    0.0809    0.0013   -0.0022
          17    0.0215    0.0395   -0.0517    0.0016   -0.0040    0.0713   -0.0069    0.0026
          18   -0.0316    0.0193   -0.0220   -0.0067   -0.0141   -0.0616    0.0003    0.0018
          19   -0.0016   -0.0011    0.0007   -0.0033   -0.0035    0.0182   -0.0088    0.0010
          20   -0.0228   -0.0166    0.0164   -0.0043   -0.0117    0.0091   -0.0069   -0.0004
          21    0.0032    0.0071   -0.0253    0.0030   -0.0267   -0.0076   -0.0054   -0.0000
          22    0.0756    0.0492   -0.0626    0.0052    0.0171    0.0235   -0.0095    0.0007
          23    0.0795    0.0327    0.0059   -0.0110    0.1316   -0.0020    0.0099   -0.0112
          24   -0.0133   -0.0348    0.1241   -0.0301    0.1768   -0.0410    0.0297   -0.0189
          25   -0.0811   -0.0740    0.1215   -0.0231    0.0504    0.0510   -0.0129   -0.0036
          26    0.0991    0.0344   -0.0121   -0.0041    0.0663   -0.0171    0.0119   -0.0050
          27    0.1330    0.0263    0.0335   -0.0148    0.1476   -0.0277    0.0228   -0.0120
          28    0.0001    0.0051   -0.0005   -0.0006   -0.0048   -0.0452    0.0004    0.0002
          29   -0.0066   -0.0093    0.0113   -0.0018   -0.0032   -0.0361   -0.0033   -0.0015
          30    0.0030    0.0105    0.0015   -0.0346   -0.0072    0.0109    0.0014    0.0028
          31   -0.0078   -0.0308    0.0212   -0.0070    0.0047    0.0252    0.0089    0.0165
          32   -0.0111   -0.0275    0.0266   -0.0235   -0.0009    0.0126    0.0012    0.0097
          33    0.0005   -0.0055   -0.0168    0.0603    0.0120    0.0041    0.0154    0.0057
          34   -0.0087   -0.0296   -0.0020    0.0786    0.0211    0.0297   -0.0131   -0.0349
          35   -0.0168   -0.0303   -0.0181    0.1480    0.0286   -0.0446   -0.0253   -0.0354
          36    0.0001   -0.0004    0.0003   -0.0033    0.0012    0.0161   -0.0021   -0.0049
          37    0.0000    0.0089    0.0045   -0.0309   -0.0094   -0.0164   -0.0067   -0.0156
          38    0.0040    0.0400   -0.0055   -0.0581   -0.0295   -0.1298    0.0268    0.0153
          39   -0.0031   -0.0238   -0.0050    0.0622    0.0183    0.0264    0.0064    0.0244
          40    0.0077   -0.0266   -0.0071   -0.0147   -0.0053    0.0005    0.0148   -0.0647
          41   -0.0002   -0.0009   -0.0014    0.0007   -0.0003   -0.0005    0.0058    0.0125
          42    0.0001   -0.0047   -0.0012   -0.0012   -0.0019    0.0002    0.0005   -0.0165
          43   -0.0089    0.0335    0.0083    0.0160    0.0102   -0.0003   -0.0301    0.0797
          44   -0.0009    0.0052    0.0011    0.0020    0.0026   -0.0001   -0.0013    0.0065
          45    0.0001    0.0029   -0.0002   -0.0026    0.0065    0.0000   -0.0041    0.0097
          46    0.0036   -0.0116   -0.0019   -0.0018    0.0009   -0.0024   -0.0239    0.0713
          47    0.0021    0.0080    0.0039   -0.0022   -0.0006    0.0017    0.0087   -0.0778
          48    0.0077    0.0005    0.0045   -0.0051   -0.0004   -0.0007   -0.0173    0.0452
          49   -0.0018    0.0015    0.0022    0.0010   -0.0013   -0.0001    0.0447    0.0456
          50    0.0050    0.0019    0.0069   -0.0000   -0.0119    0.0035    0.0066   -0.0168
          51    0.0077   -0.0004    0.0126    0.0157   -0.0375    0.0012   -0.0079   -0.0019
          52    0.0006   -0.0016   -0.0003   -0.0010   -0.0002    0.0001    0.0020   -0.0073
          53   -0.0007    0.0029    0.0009    0.0048   -0.0023   -0.0001    0.0006    0.0098
          54    0.0003   -0.0019   -0.0002   -0.0021    0.0001    0.0001   -0.0002   -0.0068
          55   -0.0138    0.0335    0.0043    0.0156    0.0010    0.0053    0.0947   -0.0381
          56   -0.0185    0.0014   -0.0039   -0.0014    0.0003   -0.0018    0.0290    0.0428
          57   -0.0135   -0.0020   -0.0129    0.0192    0.0067   -0.0042    0.0059   -0.0191
          58    0.0045   -0.0114   -0.0019   -0.0054   -0.0010   -0.0007   -0.0231   -0.0005
          59    0.0015   -0.0065   -0.0012   -0.0022   -0.0002   -0.0006   -0.0174    0.0119
          60   -0.0014    0.0000   -0.0009    0.0011   -0.0000    0.0001    0.0055   -0.0052
          61   -0.0595    0.1333    0.0362    0.0165    0.0248   -0.0146   -0.3190   -0.1932
          62   -0.0107    0.0558    0.0299   -0.0153    0.0070   -0.0045   -0.1637   -0.0494
          63    0.1379    0.0198    0.0756   -0.0604   -0.0219    0.0299    0.0210   -0.0216
          64    0.0010   -0.0106   -0.0087   -0.0038   -0.0018   -0.0014   -0.0386   -0.0392
          65    0.0083   -0.0195   -0.0209    0.0003    0.0096   -0.0031   -0.0116    0.0090
          66   -0.0247    0.0085   -0.0174   -0.0152    0.0233    0.0012    0.0153    0.0077
          67    0.1052   -0.0039    0.1208    0.0710   -0.1276    0.0104   -0.0128    0.0128
          68   -0.0142    0.0279    0.0418    0.0006   -0.0230    0.0102    0.0089   -0.0025
          69   -0.0060   -0.0046   -0.0198   -0.0055    0.0148   -0.0018    0.0053    0.0052
          70    0.0342   -0.0939   -0.0997    0.0002    0.0361   -0.0150   -0.0743   -0.0063
          71   -0.0105    0.0249    0.0270   -0.0021   -0.0104    0.0046    0.0129   -0.0016
          72    0.0279    0.0316    0.0731    0.0298   -0.0505    0.0006    0.0217   -0.0122
          73   -0.0794    0.0547    0.0071   -0.0381    0.0176    0.0049   -0.0209   -0.0789
          74   -0.0136    0.0266    0.0342    0.0025   -0.0186    0.0022   -0.0063   -0.0292
          75    0.0678   -0.0281    0.0322    0.0417   -0.0449   -0.0021    0.0092    0.0327


   Root No.      41        42        43        44        45        46        47        48

                41 A      42 A      43 A      44 A      45 A      46 A      47 A      48 A   

                1261.7    1270.2    1274.3    1275.4    1275.9    1296.1    1302.3    1328.4
  
           1   -0.0095   -0.0041    0.0115    0.0154    0.0159    0.0018    0.0232   -0.0093
           2   -0.0032   -0.0036    0.0091    0.0147    0.0196    0.0031    0.0011   -0.0397
           3    0.0002    0.0020   -0.0024   -0.0063   -0.0036   -0.0074   -0.0061    0.0084
           4   -0.0111   -0.0035    0.0102    0.0133    0.0142    0.0014    0.0202    0.0007
           5   -0.0852   -0.0120    0.0751    0.0597    0.0814    0.0744   -0.1308    0.3469
           6    0.0255    0.0020   -0.0333   -0.0191   -0.0334    0.0051    0.0248   -0.0726
           7   -0.0029    0.0001    0.0038    0.0029    0.0061    0.0032   -0.0097    0.0209
           8    0.0010   -0.0005    0.0047    0.0040    0.0065   -0.0070    0.0007   -0.0268
           9    0.0006    0.0004   -0.0031   -0.0031   -0.0055    0.0021    0.0002    0.0059
          10   -0.0035    0.0003   -0.0005   -0.0007    0.0008    0.0053   -0.0159    0.0151
          11   -0.0204   -0.0187    0.0791    0.0951    0.1148   -0.0070    0.1961    0.0227
          12    0.0059    0.0035   -0.0216   -0.0217   -0.0277    0.0016   -0.0351   -0.0190
          13    0.0003   -0.0031    0.0016    0.0075    0.0056    0.0062    0.0080   -0.0046
          14   -0.0001    0.0022   -0.0064   -0.0090   -0.0098    0.0050   -0.0228    0.0047
          15    0.0005    0.0003   -0.0005   -0.0009   -0.0011   -0.0020    0.0059    0.0008
          16    0.0154    0.0008   -0.0580   -0.0345   -0.0923    0.0049    0.1694    0.1673
          17    0.0101    0.0043   -0.0443   -0.0346   -0.0721    0.0026    0.0887    0.1160
          18   -0.0105   -0.0019    0.0399    0.0265    0.0636   -0.0051   -0.1006   -0.1055
          19    0.0002    0.0017   -0.0016   -0.0064   -0.0045   -0.0083   -0.0234   -0.0161
          20    0.0013   -0.0005   -0.0017   -0.0018   -0.0041   -0.0054    0.0138    0.0035
          21   -0.0012    0.0007    0.0039    0.0022    0.0047   -0.0042    0.0033    0.0016
          22   -0.0050    0.0137   -0.0004   -0.0266   -0.0052    0.0064   -0.0959   -0.0029
          23   -0.0013    0.0095   -0.0057   -0.0202   -0.0096    0.0153   -0.0481    0.0189
          24    0.0044   -0.0115   -0.0016    0.0174    0.0030    0.0003    0.0623    0.0036
          25   -0.0043    0.0084   -0.0018   -0.0274   -0.0106    0.0072   -0.0519    0.0244
          26    0.0043   -0.0021   -0.0070    0.0073   -0.0051    0.0064    0.0163   -0.0117
          27    0.0005    0.0031   -0.0043    0.0032   -0.0004    0.0273   -0.0052    0.0062
          28   -0.0177    0.0033   -0.0177   -0.0144   -0.0141   -0.0071   -0.0013   -0.0106
          29    0.0187    0.0032   -0.0114   -0.0136   -0.0153   -0.0055   -0.0036    0.0212
          30    0.0058   -0.0020   -0.0149    0.0036    0.0181   -0.0012    0.0018   -0.0017
          31   -0.0755    0.0028    0.0837    0.0043   -0.0701    0.0253    0.0227   -0.0203
          32   -0.0619    0.0013    0.0145   -0.0038   -0.0247    0.0086    0.0151    0.0061
          33    0.1082    0.0036    0.1839    0.0217   -0.1100    0.0422   -0.0098   -0.0127
          34    0.3035   -0.0024    0.0497    0.0173    0.0088    0.0058   -0.0100    0.0333
          35   -0.0598    0.0015   -0.1279   -0.0265    0.0637   -0.0316   -0.0049   -0.0132
          36    0.0611   -0.0018    0.0039    0.0064    0.0122    0.0014   -0.0023    0.0102
          37    0.1351   -0.0018   -0.0571   -0.0049    0.0441   -0.0173   -0.0028    0.0131
          38    0.0068    0.0096    0.0867   -0.0175   -0.1138    0.0272   -0.0042   -0.0648
          39   -0.2763    0.0033    0.0501   -0.0015   -0.0569    0.0136    0.0126   -0.0260
          40   -0.0016   -0.0014   -0.0008   -0.0004   -0.0009    0.0077   -0.0006   -0.0007
          41    0.0012   -0.0010   -0.0004    0.0003    0.0003   -0.0059   -0.0004    0.0008
          42   -0.0009    0.0002   -0.0000   -0.0002   -0.0003    0.0044    0.0001   -0.0002
          43    0.0008    0.0041    0.0054   -0.0009    0.0013   -0.0355    0.0001    0.0042
          44    0.0002   -0.0004   -0.0005    0.0006   -0.0000    0.0022   -0.0001   -0.0005
          45    0.0001    0.0009    0.0012   -0.0004    0.0001   -0.0079    0.0000    0.0003
          46    0.0031   -0.0003    0.0001    0.0014    0.0010   -0.0123    0.0007    0.0017
          47   -0.0033    0.0010    0.0003   -0.0023   -0.0010    0.0123   -0.0007   -0.0023
          48    0.0022   -0.0001    0.0006    0.0011    0.0008   -0.0089    0.0010    0.0001
          49    0.0053   -0.0043   -0.0133    0.0039   -0.0000    0.0703    0.0013   -0.0112
          50   -0.0025    0.0054    0.0101   -0.0058    0.0020   -0.0600   -0.0005    0.0063
          51    0.0000   -0.0035   -0.0026    0.0018    0.0009    0.0267    0.0031    0.0011
          52   -0.0002   -0.0003   -0.0001    0.0000   -0.0002    0.0012   -0.0001   -0.0002
          53    0.0006    0.0003   -0.0015    0.0002    0.0001    0.0103    0.0007   -0.0010
          54   -0.0004   -0.0000    0.0009   -0.0002    0.0000   -0.0055   -0.0004    0.0006
          55   -0.0007    0.0015   -0.0019   -0.0024   -0.0015   -0.0090   -0.0046    0.0019
          56    0.0030   -0.0056   -0.0072    0.0048   -0.0016    0.0262   -0.0012    0.0001
          57   -0.0011    0.0010    0.0008   -0.0019   -0.0002   -0.0044   -0.0027    0.0044
          58   -0.0009   -0.0001    0.0016    0.0007    0.0002    0.0006    0.0012   -0.0002
          59   -0.0002   -0.0001    0.0008    0.0008    0.0003   -0.0010    0.0010    0.0003
          60    0.0003   -0.0000   -0.0002   -0.0001   -0.0001    0.0009   -0.0003    0.0001
          61   -0.0100   -0.0160   -0.0027    0.0077   -0.0020    0.1706    0.0113   -0.0221
          62   -0.0020   -0.0118   -0.0058    0.0075   -0.0012    0.0973    0.0085   -0.0140
          63   -0.0012    0.0118    0.0080   -0.0047    0.0029   -0.0613    0.0107   -0.0083
          64   -0.0038    0.0074    0.0107   -0.0093    0.0030   -0.0377    0.0022    0.0074
          65    0.0006   -0.0331   -0.0007   -0.0045    0.0003    0.0124    0.0002   -0.0013
          66    0.0006    0.0056    0.0052   -0.0198    0.0070    0.0057    0.0015   -0.0026
          67   -0.0006   -0.0832    0.0315   -0.1089    0.0400    0.0496    0.0166   -0.0016
          68   -0.0005    0.3307    0.0177   -0.0339    0.0292    0.0168    0.0154    0.0009
          69    0.0004   -0.0966   -0.0017   -0.0037   -0.0038    0.0009   -0.0038   -0.0018
          70    0.0025    0.0665   -0.0376    0.1070   -0.0345    0.0354   -0.0119   -0.0070
          71   -0.0019   -0.0364    0.0217   -0.0590    0.0194   -0.0179    0.0074    0.0041
          72    0.0010   -0.2001   -0.0584    0.1732   -0.0753   -0.0592   -0.0367    0.0027
          73   -0.0051   -0.0325   -0.0108    0.0748   -0.0322   -0.1065   -0.0194    0.0054
          74    0.0002    0.1167   -0.0452    0.1583   -0.0535   -0.0487   -0.0236    0.0010
          75    0.0043    0.2203   -0.0344    0.0921   -0.0211    0.0527   -0.0029   -0.0018


   Root No.      49        50        51        52        53        54        55        56

                49 A      50 A      51 A      52 A      53 A      54 A      55 A      56 A   

                1369.8    1385.9    1387.9    1438.1    1512.2    1657.7    1665.2    1881.1
  
           1    0.0134   -0.0070   -0.0017    0.0201    0.0049    0.0085    0.0465    0.0004
           2   -0.0183    0.0047   -0.0008   -0.0514   -0.0277   -0.0176   -0.1200    0.0044
           3   -0.0020   -0.0004    0.0035    0.0051    0.0219   -0.0015    0.0143   -0.0033
           4    0.0116   -0.0104   -0.0009    0.0201    0.0064    0.0069    0.0438    0.0022
           5   -0.0615    0.0411    0.0109    0.0148    0.0234   -0.0085    0.0294   -0.0003
           6    0.0195   -0.0074   -0.0104   -0.0108   -0.0610    0.0132   -0.0367    0.0084
           7   -0.0164    0.0080    0.0031   -0.0408    0.0096   -0.0376   -0.0503    0.0008
           8   -0.0191   -0.0049    0.0056   -0.0306    0.0550   -0.0244    0.1284   -0.0047
           9    0.0110   -0.0012   -0.0028    0.0251   -0.0184    0.0208   -0.0124    0.0002
          10   -0.0242    0.0083    0.0034   -0.0438    0.0014   -0.0118   -0.0294    0.0005
          11    0.1716   -0.0350   -0.0154    0.1151    0.0074   -0.0777   -0.0750    0.0059
          12   -0.0293    0.0051    0.0012   -0.0162   -0.0150    0.0270    0.0143    0.0041
          13   -0.0195    0.0028   -0.0014   -0.0148   -0.0494    0.1304    0.0406    0.0006
          14    0.0171   -0.0017   -0.0050    0.0586   -0.0412    0.0519   -0.0215    0.0017
          15   -0.0001   -0.0003    0.0023   -0.0093    0.0305   -0.0679   -0.0104   -0.0007
          16   -0.0182    0.0224    0.0062   -0.0911    0.0070   -0.0241   -0.0568    0.0037
          17    0.0165    0.0113    0.0002   -0.0061    0.0027   -0.0426   -0.0605    0.0014
          18    0.0065   -0.0119   -0.0045    0.0299   -0.0207    0.0384    0.0417   -0.0046
          19   -0.0071   -0.0037    0.0028    0.0619    0.0274   -0.0989   -0.0377    0.0006
          20   -0.0047   -0.0000    0.0022   -0.0065    0.0205   -0.0134    0.0019    0.0019
          21    0.0029   -0.0002    0.0007   -0.0173    0.0060    0.0367    0.0158    0.0025
          22    0.1585   -0.0100   -0.0223   -0.0553    0.0034   -0.0102   -0.0145   -0.0035
          23    0.1346   -0.0022   -0.0210   -0.0981   -0.0520    0.0653    0.0143   -0.0039
          24   -0.1231    0.0125    0.0145    0.0547   -0.0701    0.0030   -0.0075   -0.0046
          25    0.1918   -0.0076   -0.0263   -0.1627    0.0445   -0.0249    0.0107   -0.0109
          26   -0.0863    0.0037    0.0125    0.1050   -0.0343   -0.0277   -0.0230   -0.0057
          27    0.0046    0.0028   -0.0002   -0.0060   -0.0531    0.0260    0.0137   -0.0049
          28   -0.0011   -0.0212    0.0015   -0.0029   -0.0011    0.0004   -0.0015   -0.0001
          29    0.0051   -0.0477    0.0029    0.0151    0.0015    0.0058    0.0157   -0.0010
          30    0.0007    0.0148   -0.0019   -0.0020   -0.0031   -0.0018   -0.0022   -0.0001
          31    0.0326    0.1888   -0.0123    0.0459    0.0235    0.0079    0.0554    0.0019
          32    0.0293    0.1338   -0.0093    0.0443    0.0141    0.0088    0.0372    0.0016
          33   -0.0194   -0.0914    0.0073   -0.0264   -0.0104   -0.0024   -0.0336    0.0073
          34    0.0092    0.0621   -0.0028    0.0157    0.0139    0.0006    0.0139    0.0027
          35    0.0144    0.2077   -0.0097    0.0184    0.0240    0.0014    0.0179   -0.0038
          36    0.0021    0.0252   -0.0017    0.0045    0.0052   -0.0015    0.0111   -0.0018
          37    0.0051   -0.0031   -0.0014    0.0030   -0.0040   -0.0008    0.0002   -0.0172
          38    0.0120    0.2289   -0.0145    0.0041    0.0041   -0.0001    0.0007   -0.0090
          39   -0.0117   -0.1104    0.0085   -0.0126   -0.0060    0.0025   -0.0145    0.0068
          40    0.0003   -0.0005   -0.0001   -0.0000   -0.0023   -0.0038    0.0023    0.0004
          41    0.0002    0.0007    0.0002   -0.0008   -0.0016   -0.0006    0.0011    0.0052
          42   -0.0001   -0.0004   -0.0004   -0.0000   -0.0012   -0.0004    0.0000   -0.0027
          43   -0.0005    0.0023    0.0012   -0.0018   -0.0087   -0.0019    0.0005   -0.0092
          44    0.0000    0.0002    0.0000   -0.0001   -0.0019   -0.0033    0.0022    0.2166
          45   -0.0004    0.0000    0.0009    0.0011    0.0050    0.0022   -0.0018   -0.1203
          46    0.0001    0.0013    0.0002   -0.0009    0.0002    0.0015    0.0020    0.1978
          47   -0.0003   -0.0016    0.0016    0.0026    0.0120    0.0064   -0.0035    0.1205
          48   -0.0000    0.0014    0.0000   -0.0007   -0.0006   -0.0026    0.0017   -0.0231
          49    0.0003   -0.0054    0.0008    0.0097    0.0732    0.0672   -0.0365   -0.0008
          50   -0.0010    0.0024    0.0113    0.0022    0.0395    0.0800   -0.0415   -0.0192
          51    0.0002    0.0011   -0.0069   -0.0075   -0.0462   -0.0344    0.0223    0.0087
          52    0.0000   -0.0002    0.0004    0.0003    0.0016    0.0013   -0.0007   -0.0053
          53   -0.0003   -0.0008   -0.0016    0.0006    0.0023    0.0004   -0.0008   -0.1479
          54    0.0002    0.0005    0.0008   -0.0006   -0.0020    0.0000    0.0005    0.0807
          55    0.0011    0.0000   -0.0022   -0.0022   -0.0267   -0.0423    0.0237   -0.0255
          56    0.0021   -0.0001   -0.0092   -0.0055   -0.0495   -0.0684    0.0391   -0.0051
          57   -0.0012    0.0008    0.0013    0.0002    0.0049    0.0297   -0.0215    0.0022
          58   -0.0003    0.0000   -0.0004   -0.0005   -0.0027    0.0005   -0.0019   -0.1208
          59   -0.0002   -0.0000   -0.0006   -0.0008   -0.0041   -0.0015   -0.0002   -0.0932
          60    0.0001    0.0001    0.0001    0.0001    0.0006    0.0008   -0.0004    0.0232
          61   -0.0044   -0.0077   -0.0071    0.0057    0.0370    0.0338   -0.0243    0.0141
          62    0.0006   -0.0042   -0.0078    0.0018   -0.0042   -0.0342    0.0217   -0.0116
          63    0.0048    0.0008    0.0119    0.0148    0.0542    0.0109    0.0127   -0.0093
          64   -0.0068    0.0002   -0.0501   -0.0040   -0.0233   -0.0166    0.0094    0.0042
          65   -0.0001   -0.0005   -0.0035    0.0001   -0.0031   -0.0069    0.0032    0.0010
          66    0.0007   -0.0002    0.0201    0.0035    0.0125    0.0059   -0.0045   -0.0010
          67    0.0207    0.0149    0.2238   -0.0112   -0.0697   -0.0230    0.0167   -0.0030
          68   -0.0046    0.0026    0.0355    0.0004   -0.0113   -0.0035    0.0023    0.0073
          69    0.0030   -0.0004    0.0093    0.0010    0.0011   -0.0060    0.0021   -0.0016
          70    0.0255    0.0107    0.2020   -0.0063   -0.0596   -0.0447    0.0261   -0.0043
          71   -0.0141   -0.0049   -0.1032    0.0030    0.0255    0.0231   -0.0139    0.0006
          72    0.0122   -0.0062   -0.0976   -0.0027    0.0445    0.0277   -0.0168   -0.0077
          73    0.0265    0.0120    0.1854   -0.0054   -0.0241   -0.0031    0.0017   -0.0035
          74    0.0206    0.0052    0.0938   -0.0037   -0.0037    0.0018   -0.0004   -0.0054
          75   -0.0128   -0.0094   -0.1525    0.0012    0.0240    0.0070   -0.0036    0.0070


   Root No.      57        58        59        60        61        62        63        64

                57 A      58 A      59 A      60 A      61 A      62 A      63 A      64 A   

                1945.7    2647.0    2652.3    2668.3    2671.1    2691.6    2713.7    2740.5
  
           1    0.0003    0.0031    0.0003   -0.0045   -0.0009   -0.0013   -0.0371   -0.0073
           2   -0.0058   -0.0005   -0.0000   -0.0001    0.0000   -0.0000    0.0021    0.0018
           3    0.0037   -0.0017   -0.0001   -0.0019   -0.0001   -0.0000   -0.0001   -0.0001
           4   -0.0042   -0.0663   -0.0043    0.0855    0.0120    0.0163    0.5031    0.0830
           5   -0.0006    0.0031    0.0002   -0.0036   -0.0003   -0.0021   -0.0055   -0.0017
           6   -0.0079   -0.0017    0.0000    0.0001    0.0003    0.0008   -0.0014    0.0001
           7   -0.0013    0.0004    0.0000   -0.0005   -0.0000   -0.0008    0.0100   -0.0121
           8    0.0053   -0.0002    0.0000    0.0004    0.0000   -0.0012    0.0002   -0.0025
           9   -0.0014   -0.0002   -0.0000   -0.0000    0.0000    0.0005   -0.0034    0.0042
          10    0.0037    0.0004   -0.0004   -0.0004   -0.0008    0.0055   -0.1646    0.1721
          11   -0.0031    0.0001    0.0000   -0.0000   -0.0001   -0.0004   -0.0017   -0.0029
          12   -0.0005    0.0004    0.0002    0.0002    0.0003   -0.0014    0.0494   -0.0506
          13   -0.0041   -0.0002   -0.0000    0.0000    0.0001    0.0054   -0.0005    0.0171
          14   -0.0015   -0.0001   -0.0000    0.0002   -0.0001   -0.0056    0.0028   -0.0262
          15    0.0021    0.0001    0.0000   -0.0001   -0.0001   -0.0005   -0.0009    0.0036
          16    0.0040    0.0008   -0.0000    0.0007   -0.0028   -0.0781    0.0217   -0.2455
          17   -0.0021   -0.0008    0.0002   -0.0012    0.0042    0.1118   -0.0298    0.3365
          18    0.0012    0.0002    0.0001    0.0002   -0.0005   -0.0128    0.0031   -0.0358
          19    0.0032    0.0002    0.0004   -0.0001   -0.0008   -0.0131    0.0003    0.0007
          20    0.0007   -0.0004    0.0004    0.0004    0.0029    0.0358   -0.0002   -0.0110
          21   -0.0012    0.0000   -0.0001   -0.0001   -0.0018   -0.0208    0.0005    0.0056
          22    0.0001   -0.0023   -0.0030    0.0022    0.0224    0.3024   -0.0079   -0.0358
          23   -0.0000    0.0015    0.0032   -0.0012   -0.0153   -0.2159    0.0081    0.0197
          24   -0.0035   -0.0006   -0.0006    0.0006    0.0087    0.1247   -0.0049   -0.0110
          25   -0.0039    0.0014   -0.0028   -0.0014   -0.0112   -0.1270   -0.0010    0.0513
          26   -0.0056    0.0026   -0.0069   -0.0027   -0.0221   -0.2377   -0.0026    0.1041
          27   -0.0020   -0.0013    0.0043    0.0016    0.0133    0.1434    0.0014   -0.0630
          28    0.0004   -0.0310   -0.0014    0.0260    0.0003   -0.0008   -0.0092   -0.0014
          29    0.0019    0.0024    0.0003   -0.0225   -0.0002    0.0002    0.0032    0.0008
          30   -0.0009   -0.0320   -0.0010   -0.0281   -0.0001   -0.0000    0.0007   -0.0001
          31   -0.0032    0.0555    0.0040   -0.2061   -0.0014    0.0029    0.0505    0.0101
          32   -0.0015   -0.1033   -0.0067    0.3140    0.0021   -0.0044   -0.0794   -0.0160
          33   -0.0032   -0.0390   -0.0020    0.0565    0.0004   -0.0009   -0.0170   -0.0033
          34   -0.0020   -0.0681   -0.0023   -0.0605   -0.0005    0.0002   -0.0033   -0.0015
          35    0.0012   -0.0047   -0.0000   -0.0190   -0.0002    0.0002    0.0031    0.0003
          36   -0.0005    0.2468    0.0076    0.3584    0.0030   -0.0020   -0.0021    0.0058
          37    0.0156    0.4069    0.0158   -0.0692   -0.0025    0.0061    0.0376    0.0024
          38    0.0049    0.0865    0.0035   -0.0266   -0.0005    0.0015    0.0132    0.0014
          39   -0.0018    0.1925    0.0076   -0.0550   -0.0014    0.0032    0.0193    0.0010
          40   -0.0064   -0.0002   -0.0000    0.0000   -0.0000    0.0000   -0.0000   -0.0001
          41    0.0005   -0.0002   -0.0000    0.0000   -0.0001    0.0001   -0.0000   -0.0002
          42   -0.0008    0.0001   -0.0000    0.0000    0.0000   -0.0000   -0.0000    0.0001
          43    0.0105    0.0002    0.0002   -0.0000   -0.0003   -0.0000   -0.0000    0.0001
          44    0.2109    0.0001   -0.0000    0.0000    0.0004   -0.0002    0.0002    0.0005
          45   -0.1136   -0.0000    0.0001   -0.0000   -0.0002    0.0002   -0.0001   -0.0003
          46   -0.2037    0.0014    0.0002   -0.0004   -0.0001   -0.0000   -0.0002   -0.0002
          47   -0.1525    0.0010    0.0001   -0.0002    0.0001   -0.0001   -0.0002    0.0001
          48    0.0381   -0.0003    0.0000    0.0000   -0.0001    0.0000    0.0000   -0.0001
          49    0.0340    0.0000    0.0001   -0.0000    0.0001   -0.0002    0.0002    0.0001
          50    0.0057    0.0002   -0.0014   -0.0000   -0.0025    0.0001   -0.0002   -0.0003
          51   -0.0003    0.0001   -0.0026   -0.0001    0.0018   -0.0007   -0.0000   -0.0001
          52   -0.0046   -0.0000   -0.0000    0.0000   -0.0001    0.0001   -0.0000   -0.0000
          53   -0.1280   -0.0001   -0.0000   -0.0000   -0.0001    0.0001   -0.0001   -0.0003
          54    0.0698    0.0000   -0.0001    0.0000    0.0001   -0.0000    0.0001    0.0001
          55    0.0208   -0.0004   -0.0002   -0.0001    0.0003    0.0001    0.0014    0.0014
          56   -0.0178   -0.0001    0.0002    0.0004    0.0010   -0.0006   -0.0031   -0.0023
          57    0.0107    0.0001   -0.0001   -0.0002   -0.0003    0.0002   -0.0001    0.0006
          58    0.1207   -0.0007   -0.0001    0.0002   -0.0000    0.0000    0.0001    0.0000
          59    0.0937   -0.0006   -0.0001    0.0001   -0.0000    0.0000    0.0000   -0.0000
          60   -0.0235    0.0003    0.0000   -0.0000    0.0000   -0.0000   -0.0000    0.0000
          61   -0.0012    0.0001    0.0013    0.0025    0.0032   -0.0029   -0.0177   -0.0149
          62   -0.0172    0.0001   -0.0024   -0.0051   -0.0065    0.0066    0.0378    0.0311
          63    0.0144    0.0005    0.0007    0.0010    0.0009   -0.0012   -0.0087   -0.0061
          64   -0.0051    0.0005   -0.0139   -0.0002    0.0095   -0.0007    0.0000    0.0003
          65   -0.0005    0.0007   -0.0273    0.0003   -0.0365    0.0028    0.0006   -0.0004
          66    0.0019    0.0014   -0.0368   -0.0005    0.0233   -0.0017   -0.0005    0.0001
          67   -0.0043    0.0012   -0.0297   -0.0003    0.0114   -0.0008   -0.0002    0.0000
          68    0.0052   -0.0042    0.1152    0.0015   -0.0567    0.0034    0.0020    0.0009
          69    0.0002   -0.0160    0.4522    0.0044   -0.1287    0.0076    0.0063    0.0035
          70   -0.0107   -0.0040    0.1396   -0.0008    0.1409   -0.0102   -0.0035    0.0004
          71    0.0038   -0.0088    0.2989   -0.0016    0.2740   -0.0210   -0.0080    0.0002
          72   -0.0016    0.0005   -0.0101   -0.0004    0.0204   -0.0009   -0.0004   -0.0003
          73   -0.0058   -0.0038    0.0540    0.0038   -0.2673    0.0197    0.0022   -0.0043
          74   -0.0043    0.0042   -0.0715   -0.0034    0.2404   -0.0174   -0.0018    0.0041
          75    0.0068   -0.0023    0.0258    0.0025   -0.1874    0.0145    0.0016   -0.0034


   Root No.      65        66        67        68        69

                65 A      66 A      67 A      68 A      69 A   

                2755.0    2757.2    2768.5    2773.7    2775.9
  
           1   -0.0073   -0.0039    0.0042    0.0045    0.0005
           2    0.0018    0.0003    0.0006    0.0040    0.0013
           3   -0.0000    0.0003   -0.0012   -0.0015   -0.0003
           4    0.0806    0.0449   -0.0501   -0.0408    0.0005
           5   -0.0032   -0.0025    0.0009   -0.0005   -0.0005
           6    0.0002    0.0000   -0.0009    0.0007    0.0007
           7   -0.0224   -0.0113    0.0028    0.0041    0.0015
           8    0.0006    0.0017   -0.0005   -0.0012   -0.0001
           9    0.0064    0.0028   -0.0006   -0.0008   -0.0005
          10    0.2930    0.1492   -0.0341   -0.0487   -0.0183
          11   -0.0035   -0.0014    0.0008    0.0011    0.0004
          12   -0.0867   -0.0442    0.0098    0.0142    0.0056
          13   -0.0060   -0.0089    0.0001    0.0012    0.0003
          14    0.0064    0.0069    0.0011   -0.0007   -0.0009
          15   -0.0003    0.0004   -0.0003   -0.0002    0.0002
          16    0.0639    0.0800    0.0075   -0.0090   -0.0073
          17   -0.0893   -0.1082   -0.0102    0.0125    0.0104
          18    0.0099    0.0110    0.0008   -0.0014   -0.0010
          19    0.0105   -0.0220   -0.0007   -0.0005   -0.0016
          20    0.0059   -0.0044    0.0002   -0.0003   -0.0010
          21   -0.0039    0.0039    0.0007    0.0003    0.0003
          22   -0.0719    0.1856    0.0020    0.0022    0.0135
          23    0.0606   -0.1478   -0.0023   -0.0022   -0.0106
          24   -0.0357    0.0855    0.0008    0.0009    0.0072
          25   -0.0584    0.0941    0.0014    0.0020    0.0094
          26   -0.1307    0.2160    0.0037    0.0046    0.0210
          27    0.0773   -0.1279   -0.0025   -0.0029   -0.0121
          28   -0.0009   -0.0006    0.0019    0.0045    0.0012
[...]
 FREQUENCY          1032.89         C 22 -- H 24         +12.6% ( 52.3%)     16.7%
 TRANSITION DIPOLE   0.4368         C 22 -- H 25         +11.0% ( 48.9%)     10.2%
 TRAVEL (Ang.)       0.3588         C 16 -- C 19         +10.6% ( 47.9%)     66.8%
 REDUCED MASS        0.5070         C  1 -- C 19          +8.7% ( 43.3%)     15.7%
 EFFECTIVE MASS      6.2011
 FORCE CONSTANT      0.3187

 VIBRATION         33   33A           ATOM PAIR      ENERGY CONTRIBUTION    RADIAL
 FREQUENCY          1035.38         C  7 -- H  9         +19.3% ( 57.0%)      7.1%
 TRANSITION DIPOLE   0.8782         C 19 -- H 21         +12.7% ( 46.3%)      1.5%
 TRAVEL (Ang.)       0.4974         C 22 -- H 25         +10.5% ( 41.9%)      7.4%
 REDUCED MASS        0.2633         C  7 -- H  8          +9.8% ( 40.5%)      5.5%
 EFFECTIVE MASS      3.7085
 FORCE CONSTANT      0.1663

 VIBRATION         34   34A           ATOM PAIR      ENERGY CONTRIBUTION    RADIAL
 FREQUENCY          1050.85         C 19 -- H 21         +11.4% ( 47.9%)     31.0%
 TRANSITION DIPOLE   1.0722         O 14 -- C 15         +10.7% ( 46.3%)     79.4%
 TRAVEL (Ang.)       0.3488         C 16 -- C 19          +7.6% ( 39.0%)     92.5%
 REDUCED MASS        0.5273         C 22 -- H 24          +6.3% ( 35.5%)     32.2%
 EFFECTIVE MASS      7.0664
 FORCE CONSTANT      0.3431

 VIBRATION         35   35A           ATOM PAIR      ENERGY CONTRIBUTION    RADIAL
 FREQUENCY          1058.24         C  7 -- H  8         +16.6% ( 51.8%)      6.0%
 TRANSITION DIPOLE   0.8638         C 22 -- H 23         +13.9% ( 47.5%)     11.9%
 TRAVEL (Ang.)       0.4684         C 22 -- H 24         +13.5% ( 46.8%)     14.0%
 REDUCED MASS        0.2905         C  7 -- H  9         +13.1% ( 46.1%)     15.1%
 EFFECTIVE MASS      3.9819
 FORCE CONSTANT      0.1916

 VIBRATION         36   36A           ATOM PAIR      ENERGY CONTRIBUTION    RADIAL
 FREQUENCY          1087.05         C 10 -- H 12         +18.1% ( 52.2%)     23.2%
 TRANSITION DIPOLE   0.4240         C  1 -- H  2         +12.9% ( 44.1%)      0.0%
 TRAVEL (Ang.)       0.3558         C 10 -- H 13         +10.6% ( 40.0%)      6.4%
 REDUCED MASS        0.4899         C  1 -- C 10          +9.0% ( 36.9%)      5.4%
 EFFECTIVE MASS      5.0484
 FORCE CONSTANT      0.3411

 VIBRATION         37   37A           ATOM PAIR      ENERGY CONTRIBUTION    RADIAL
 FREQUENCY          1135.00         C  7 -- H  8         +24.6% ( 52.0%)      0.2%
 TRANSITION DIPOLE   0.4709         C  7 -- H  9         +15.8% ( 41.6%)      0.0%
 TRAVEL (Ang.)       0.3798         C 22 -- H 23         +12.1% ( 36.4%)     26.2%
 REDUCED MASS        0.4118         C 17 -- C 22          +7.4% ( 28.5%)     10.9%
 EFFECTIVE MASS      3.6205
 FORCE CONSTANT      0.3126

 VIBRATION         38   38A           ATOM PAIR      ENERGY CONTRIBUTION    RADIAL
 FREQUENCY          1166.02         C  1 -- C 10         +20.6% ( 69.8%)     74.3%
 TRANSITION DIPOLE   0.4011         C  1 -- C  3         +14.7% ( 59.0%)      6.8%
 TRAVEL (Ang.)       0.2037         C  3 -- H  4         +10.9% ( 50.8%)     27.8%
 REDUCED MASS        1.3932         C  1 -- C 19          +8.5% ( 45.0%)      1.8%
 EFFECTIVE MASS      8.3338
 FORCE CONSTANT      1.1160

 VIBRATION         39   39A           ATOM PAIR      ENERGY CONTRIBUTION    RADIAL
 FREQUENCY          1213.20         C 19 -- H 21         +31.2% ( 84.7%)      0.3%
 TRANSITION DIPOLE   1.1367         C 16 -- C 19         +14.9% ( 58.5%)     94.7%
 TRAVEL (Ang.)       0.1835         C  1 -- C 19         +11.8% ( 52.1%)      0.1%
 REDUCED MASS        1.6501         C 17 -- C 19         +11.5% ( 51.4%)     41.0%
 EFFECTIVE MASS      7.4999
 FORCE CONSTANT      1.4309

 VIBRATION         40   40A           ATOM PAIR      ENERGY CONTRIBUTION    RADIAL
 FREQUENCY          1226.10         C 15 -- C 16         +15.3% ( 59.8%)     87.7%
 TRANSITION DIPOLE   2.2730         O 14 -- C 16         +15.1% ( 59.5%)     52.0%
 TRAVEL (Ang.)       0.1551         C 16 -- C 19         +14.8% ( 58.9%)     53.6%
 REDUCED MASS        2.2864         O 14 -- C 15         +10.6% ( 49.7%)     65.8%
 EFFECTIVE MASS     11.3042
 FORCE CONSTANT      2.0251

 VIBRATION         41   41A           ATOM PAIR      ENERGY CONTRIBUTION    RADIAL
 FREQUENCY          1261.73         C 10 -- H 13         +40.0% ( 54.4%)      0.7%
 TRANSITION DIPOLE   0.5654         C 10 -- H 12         +38.2% ( 53.2%)      0.5%
 TRAVEL (Ang.)       0.3812         C 10 -- H 11         +10.2% ( 27.5%)     24.7%
 REDUCED MASS        0.3677         C  1 -- H  2          +4.7% ( 18.7%)      7.3%
 EFFECTIVE MASS      1.4122
 FORCE CONSTANT      0.3449

 VIBRATION         42   42A           ATOM PAIR      ENERGY CONTRIBUTION    RADIAL
 FREQUENCY          1270.17         C 22 -- H 23         +47.2% ( 60.2%)      0.0%
 TRANSITION DIPOLE   0.5132         C 22 -- H 25         +24.8% ( 43.6%)      6.9%
 TRAVEL (Ang.)       0.3725         C 22 -- H 24         +19.4% ( 38.6%)     11.5%
 REDUCED MASS        0.3825         C 17 -- C 22          +4.5% ( 18.7%)      2.3%
 EFFECTIVE MASS      1.5845
 FORCE CONSTANT      0.3636

 VIBRATION         43   43A           ATOM PAIR      ENERGY CONTRIBUTION    RADIAL
 FREQUENCY          1274.27         C 10 -- H 11         +27.4% ( 52.1%)      0.0%
 TRANSITION DIPOLE   0.3813         C 10 -- H 12         +13.0% ( 36.0%)      4.8%
 TRAVEL (Ang.)       0.4784         C 10 -- H 13         +10.0% ( 31.6%)     18.0%
 REDUCED MASS        0.2312         C  1 -- C 10          +6.6% ( 25.5%)     49.4%
 EFFECTIVE MASS      2.5075
 FORCE CONSTANT      0.2212

 VIBRATION         44   44A           ATOM PAIR      ENERGY CONTRIBUTION    RADIAL
 FREQUENCY          1275.40         C 22 -- H 24         +24.7% ( 49.3%)      0.7%
 TRANSITION DIPOLE   0.4227         C 22 -- H 25         +21.6% ( 46.1%)      1.9%
 TRAVEL (Ang.)       0.4488         C  1 -- C 10          +7.7% ( 27.5%)     88.9%
 REDUCED MASS        0.2625         C 22 -- H 23          +7.6% ( 27.3%)     32.9%
 EFFECTIVE MASS      2.5522
 FORCE CONSTANT      0.2516

 VIBRATION         45   45A           ATOM PAIR      ENERGY CONTRIBUTION    RADIAL
 FREQUENCY          1275.89         C  5 -- H  6         +13.7% ( 39.4%)      4.4%
 TRANSITION DIPOLE   0.6605         C 10 -- H 13         +12.8% ( 38.2%)      1.3%
 TRAVEL (Ang.)       0.4772         C 10 -- H 11         +12.5% ( 37.6%)      0.0%
 REDUCED MASS        0.2321         C  1 -- C 10         +12.2% ( 37.3%)     92.7%
 EFFECTIVE MASS      3.0146         C  3 -- H  4         +10.4% ( 34.4%)      3.4%
 FORCE CONSTANT      0.2226

 VIBRATION         46   46A           ATOM PAIR      ENERGY CONTRIBUTION    RADIAL
 FREQUENCY          1296.11         C 17 -- C 22         +19.4% ( 64.8%)     47.3%
 TRANSITION DIPOLE   0.8247         C 15 -- C 17         +18.3% ( 62.8%)     95.7%
 TRAVEL (Ang.)       0.1416         C 17 -- C 19         +17.1% ( 60.9%)     14.4%
 REDUCED MASS        2.5959         C  7 -- C 17         +14.1% ( 55.2%)      0.1%
 EFFECTIVE MASS      8.2206
 FORCE CONSTANT      2.5693

 VIBRATION         47   47A           ATOM PAIR      ENERGY CONTRIBUTION    RADIAL
 FREQUENCY          1302.31         C  5 -- H  6         +27.3% ( 56.6%)      6.2%
 TRANSITION DIPOLE   0.1374         C  3 -- H  4         +21.1% ( 49.8%)      1.7%
 TRAVEL (Ang.)       0.4286         C  1 -- H  2         +11.2% ( 36.2%)     15.1%
 REDUCED MASS        0.2819         C  7 -- H  8          +9.0% ( 32.4%)     32.9%
 EFFECTIVE MASS      2.7402
 FORCE CONSTANT      0.2817

 VIBRATION         48   48A           ATOM PAIR      ENERGY CONTRIBUTION    RADIAL
 FREQUENCY          1328.37         C  1 -- H  2         +45.8% ( 78.3%)      0.4%
 TRANSITION DIPOLE   0.1384         C  5 -- H  6         +14.9% ( 44.7%)      0.5%
 TRAVEL (Ang.)       0.3252         C  1 -- C 10          +8.1% ( 32.9%)     77.8%
 REDUCED MASS        0.4800         C  1 -- C 19          +5.5% ( 27.2%)      0.4%
 EFFECTIVE MASS      2.8519
 FORCE CONSTANT      0.4990

 VIBRATION         49   49A           ATOM PAIR      ENERGY CONTRIBUTION    RADIAL
 FREQUENCY          1369.75         C  7 -- H  8         +25.3% ( 50.6%)      0.0%
 TRANSITION DIPOLE   0.4994         C  3 -- H  4         +20.8% ( 45.9%)      3.8%
 TRAVEL (Ang.)       0.4047         C  7 -- H  9         +18.6% ( 43.4%)      0.8%
 REDUCED MASS        0.3006         C  3 -- C  5          +8.8% ( 29.9%)     77.0%
 EFFECTIVE MASS      2.4289
 FORCE CONSTANT      0.3323

 VIBRATION         50   50A           ATOM PAIR      ENERGY CONTRIBUTION    RADIAL
 FREQUENCY          1385.91         C 10 -- H 13         +31.6% ( 58.4%)      1.4%
 TRANSITION DIPOLE   1.1092         C 10 -- H 11         +30.1% ( 57.0%)      2.4%
 TRAVEL (Ang.)       0.3019         C 10 -- H 12         +25.0% ( 51.9%)      1.4%
 REDUCED MASS        0.5337         C  1 -- C 10          +8.8% ( 30.9%)     96.3%
 EFFECTIVE MASS      2.5035
 FORCE CONSTANT      0.6039

 VIBRATION         51   51A           ATOM PAIR      ENERGY CONTRIBUTION    RADIAL
 FREQUENCY          1387.91         C 22 -- H 25         +30.5% ( 57.9%)      1.3%
 TRANSITION DIPOLE   0.8731         C 22 -- H 24         +28.7% ( 56.2%)      2.1%
 TRAVEL (Ang.)       0.3063         C 22 -- H 23         +25.4% ( 52.9%)      1.6%
 REDUCED MASS        0.5179         C 17 -- C 22          +9.2% ( 31.7%)     94.1%
 EFFECTIVE MASS      2.5889
 FORCE CONSTANT      0.5878

 VIBRATION         52   52A           ATOM PAIR      ENERGY CONTRIBUTION    RADIAL
 FREQUENCY          1438.06         C  5 -- C  7         +14.6% ( 54.7%)     52.5%
 TRANSITION DIPOLE   0.4338         C  3 -- C  5         +14.4% ( 54.3%)     97.8%
 TRAVEL (Ang.)       0.1878         C  7 -- H  9         +12.7% ( 51.1%)      1.7%
 REDUCED MASS        1.3294         C  1 -- C  3         +10.4% ( 46.1%)     53.3%
 EFFECTIVE MASS      8.4503
 FORCE CONSTANT      1.6198

 VIBRATION         53   53A           ATOM PAIR      ENERGY CONTRIBUTION    RADIAL
 FREQUENCY          1512.20         C 17 -- C 19         +17.2% ( 66.5%)     90.1%
 TRANSITION DIPOLE   1.4415         C 17 -- C 22         +11.6% ( 54.5%)     87.1%
 TRAVEL (Ang.)       0.1444         C  3 -- C  5         +11.2% ( 53.6%)     98.9%
 REDUCED MASS        2.1384         C  7 -- C 17         +10.3% ( 51.5%)      9.3%
 EFFECTIVE MASS     10.5476
 FORCE CONSTANT      2.8812

 VIBRATION         54   54A           ATOM PAIR      ENERGY CONTRIBUTION    RADIAL
 FREQUENCY          1657.66         C  5 -- C  7         +22.6% ( 71.8%)     94.0%
 TRANSITION DIPOLE   1.2102         C  3 -- C  5         +13.5% ( 55.5%)     64.0%
 TRAVEL (Ang.)       0.1155         C 17 -- C 19         +11.7% ( 51.8%)     98.4%
 REDUCED MASS        3.0478         C  5 -- H  6         +10.9% ( 49.9%)      1.6%
 EFFECTIVE MASS     11.6748         C  7 -- C 17         +10.7% ( 49.3%)      1.6%
 FORCE CONSTANT      4.9344

 VIBRATION         55   55A           ATOM PAIR      ENERGY CONTRIBUTION    RADIAL
 FREQUENCY          1665.22         C  1 -- C  3         +29.0% ( 81.7%)     96.2%
 TRANSITION DIPOLE   1.8179         C  3 -- C  5         +11.9% ( 52.3%)     26.6%
 TRAVEL (Ang.)       0.1091         C  1 -- C 19         +10.6% ( 49.5%)      2.0%
 REDUCED MASS        3.4006         C  3 -- H  4         +10.4% ( 48.9%)      5.4%
 EFFECTIVE MASS     11.4112
 FORCE CONSTANT      5.5559

 VIBRATION         56   56A           ATOM PAIR      ENERGY CONTRIBUTION    RADIAL
 FREQUENCY          1881.11         C 15 -- O 18         +23.7% ( 73.9%)     99.8%
 TRANSITION DIPOLE   6.9579         C 16 -- O 20         +20.5% ( 68.7%)     99.4%
 TRAVEL (Ang.)       0.1021         C 15 -- C 16         +17.5% ( 63.6%)      0.9%
 REDUCED MASS        3.4364         C 15 -- C 17         +10.1% ( 48.2%)     51.5%
 EFFECTIVE MASS     13.4315
 FORCE CONSTANT      7.1644

 VIBRATION         57   57A           ATOM PAIR      ENERGY CONTRIBUTION    RADIAL
 FREQUENCY          1945.69         C 16 -- O 20         +21.9% ( 71.0%)    100.0%
 TRANSITION DIPOLE   2.8163         C 15 -- C 16         +20.2% ( 68.3%)     99.8%
 TRAVEL (Ang.)       0.0995         C 15 -- O 18         +19.1% ( 66.4%)    100.0%
 REDUCED MASS        3.5012         C 16 -- C 19         +10.4% ( 49.0%)     60.3%
 EFFECTIVE MASS     13.2405         O 14 -- C 16         +10.1% ( 48.3%)     23.1%
 FORCE CONSTANT      7.8093

 VIBRATION         58   58A           ATOM PAIR      ENERGY CONTRIBUTION    RADIAL
 FREQUENCY          2646.99         C 10 -- H 13         +69.1% ( 85.7%)     99.6%
 TRANSITION DIPOLE   0.6429         C 10 -- H 12         +22.6% ( 49.1%)     91.5%
 TRAVEL (Ang.)       0.2160         C 10 -- H 11          +5.9% ( 25.0%)     64.4%
 REDUCED MASS        0.5461         C  1 -- H  2          +1.4% ( 12.2%)     99.3%
 EFFECTIVE MASS      1.4357
 FORCE CONSTANT      2.2546

 VIBRATION         59   59A           ATOM PAIR      ENERGY CONTRIBUTION    RADIAL
 FREQUENCY          2652.35         C 22 -- H 23         +63.4% ( 82.1%)     99.2%
 TRANSITION DIPOLE   0.7240         C 22 -- H 24         +32.4% ( 58.7%)     94.8%
 TRAVEL (Ang.)       0.2208         C 22 -- H 25          +3.2% ( 18.5%)     44.1%
 REDUCED MASS        0.5213         C 17 -- C 22          +0.8% (  9.5%)      0.2%
 EFFECTIVE MASS      1.4353
 FORCE CONSTANT      2.1605

 VIBRATION         60   60A           ATOM PAIR      ENERGY CONTRIBUTION    RADIAL
 FREQUENCY          2668.29         C 10 -- H 11         +49.3% ( 72.4%)     98.6%
 TRANSITION DIPOLE   0.6493         C 10 -- H 12         +44.1% ( 68.5%)     96.9%
 TRAVEL (Ang.)       0.2360         C 10 -- H 13          +3.4% ( 18.9%)     43.1%
 REDUCED MASS        0.4536         C  1 -- H  2          +2.3% ( 15.7%)     99.4%
 EFFECTIVE MASS      1.4375
 FORCE CONSTANT      1.9026

 VIBRATION         61   61A           ATOM PAIR      ENERGY CONTRIBUTION    RADIAL
 FREQUENCY          2671.08         C 22 -- H 25         +57.7% ( 78.3%)     99.2%
 TRANSITION DIPOLE   0.5736         C 22 -- H 24         +33.3% ( 59.5%)     94.7%
 TRAVEL (Ang.)       0.2328         C 22 -- H 23          +7.4% ( 28.1%)     68.2%
 REDUCED MASS        0.4659         C 17 -- C 22          +0.9% (  9.8%)      0.0%
 EFFECTIVE MASS      1.4514
 FORCE CONSTANT      1.9586

 VIBRATION         62   62A           ATOM PAIR      ENERGY CONTRIBUTION    RADIAL
 FREQUENCY          2691.63         C  7 -- H  8         +55.7% ( 77.2%)     99.1%
 TRANSITION DIPOLE   0.4446         C  7 -- H  9         +35.1% ( 61.3%)     97.4%
 TRAVEL (Ang.)       0.2333         C  5 -- H  6          +6.4% ( 26.3%)     99.9%
 REDUCED MASS        0.4604         C  5 -- C  7          +1.0% ( 10.6%)      3.0%
 EFFECTIVE MASS      1.4732
 FORCE CONSTANT      1.9651

 VIBRATION         63   63A           ATOM PAIR      ENERGY CONTRIBUTION    RADIAL
 FREQUENCY          2713.69         C  1 -- H  2         +82.6% ( 92.3%)    100.0%
 TRANSITION DIPOLE   0.5123         C  3 -- H  4          +9.7% ( 31.6%)     99.9%
 TRAVEL (Ang.)       0.1901         C 10 -- H 11          +3.0% ( 17.7%)     98.4%
 REDUCED MASS        0.6873         C  1 -- C  3          +1.1% ( 10.4%)     30.1%
 EFFECTIVE MASS      1.3730
 FORCE CONSTANT      2.9821

 VIBRATION         64   64A           ATOM PAIR      ENERGY CONTRIBUTION    RADIAL
 FREQUENCY          2740.55         C  5 -- H  6         +72.7% ( 86.1%)    100.0%
 TRANSITION DIPOLE   0.7596         C  3 -- H  4         +13.4% ( 37.0%)     99.9%
 TRAVEL (Ang.)       0.2139         C  7 -- H  9          +7.3% ( 27.3%)     99.6%
 REDUCED MASS        0.5379         C  1 -- H  2          +2.9% ( 17.2%)     99.5%
 EFFECTIVE MASS      1.3868
 FORCE CONSTANT      2.3805

 VIBRATION         65   65A           ATOM PAIR      ENERGY CONTRIBUTION    RADIAL
 FREQUENCY          2755.00         C  3 -- H  4         +59.6% ( 77.5%)    100.0%
 TRANSITION DIPOLE   0.8430         C  7 -- H  9         +16.4% ( 40.6%)     98.1%
 TRAVEL (Ang.)       0.2544         C  5 -- H  6          +7.7% ( 27.9%)     99.9%
 REDUCED MASS        0.3783         C  7 -- H  8          +6.0% ( 24.6%)     88.3%
 EFFECTIVE MASS      1.3812
 FORCE CONSTANT      1.6918

 VIBRATION         66   66A           ATOM PAIR      ENERGY CONTRIBUTION    RADIAL
 FREQUENCY          2757.16         C  7 -- H  9         +38.7% ( 61.8%)     95.8%
 TRANSITION DIPOLE   0.9590         C  7 -- H  8         +34.0% ( 57.9%)     94.9%
 TRAVEL (Ang.)       0.2880         C  3 -- H  4         +13.6% ( 36.7%)     99.9%
 REDUCED MASS        0.2948         C  5 -- H  6         +10.3% ( 31.9%)     99.4%
 EFFECTIVE MASS      1.2917
 FORCE CONSTANT      1.3203

 VIBRATION         67   67A           ATOM PAIR      ENERGY CONTRIBUTION    RADIAL
 FREQUENCY          2768.46         C 19 -- H 21         +83.9% ( 92.5%)    100.0%
 TRANSITION DIPOLE   0.8509         C 22 -- H 24          +3.7% ( 19.5%)     96.3%
 TRAVEL (Ang.)       0.1882         C 22 -- H 25          +3.4% ( 18.7%)     95.6%
 REDUCED MASS        0.6877         C 22 -- H 23          +2.8% ( 16.8%)     94.1%
 EFFECTIVE MASS      1.3818
 FORCE CONSTANT      3.1053

 VIBRATION         68   68A           ATOM PAIR      ENERGY CONTRIBUTION    RADIAL
 FREQUENCY          2773.70         C 10 -- H 11         +33.9% ( 56.0%)     96.6%
 TRANSITION DIPOLE   0.7598         C 10 -- H 12         +27.0% ( 50.0%)     94.9%
 TRAVEL (Ang.)       0.3211         C 10 -- H 13         +21.0% ( 44.1%)     93.4%
 REDUCED MASS        0.2358         C 22 -- H 25          +5.4% ( 22.4%)     96.2%
 EFFECTIVE MASS      1.1610
 FORCE CONSTANT      1.0687

 VIBRATION         69   69A           ATOM PAIR      ENERGY CONTRIBUTION    RADIAL
 FREQUENCY          2775.86         C 22 -- H 25         +28.7% ( 51.9%)     96.2%
 TRANSITION DIPOLE   0.6889         C 22 -- H 24         +24.0% ( 47.4%)     95.3%
 TRAVEL (Ang.)       0.3458         C 22 -- H 23         +20.1% ( 43.4%)     93.8%
 REDUCED MASS        0.2031         C 19 -- H 21         +13.5% ( 35.6%)    100.0%
 EFFECTIVE MASS      1.1878
 FORCE CONSTANT      0.9223

           FORCE CONSTANT IN CARTESIAN COORDINATES (Millidynes/A)

    ATOM   CHEMICAL       X               Y               Z
   NUMBER   SYMBOL  FORCE CONSTANT  FORCE CONSTANT  FORCE CONSTANT

      1       C        8.279775       11.007706        2.008837
      2       H        4.127549        0.922420        0.548641
      3       C        8.711209       10.903148        3.648260
      4       H        3.927349        0.921011        0.722151
      5       C       10.099442        9.017914        4.333839
      6       H        1.996350        2.995749        0.530543
      7       C       10.574511        5.109634        3.148907
      8       H        2.695182        1.746755        1.012042
      9       H        1.240314        2.867331        1.320202
     10       C        6.511496        7.439672        6.079462
     11       H        1.707798        3.021446        0.684913
     12       H        0.672972        0.691248        3.932994
     13       H        3.253918        0.833650        1.248642
     14       O        6.261037        5.115403        1.840417
     15       C        5.860679       13.982804        5.982509
     16       C       13.766247        8.897897        3.433793
     17       C       10.475782        6.690904        4.331120
     18       O        1.000555       11.443460        3.663539
     19       C        8.011887       10.072349        2.208772
     20       O        9.140021        6.035187        0.896436
     21       H        1.410915        3.508888        0.600694
     22       C        7.523385        6.314457        6.216363
     23       H        0.745349        0.772684        3.790187
     24       H        1.341337        3.449050        0.609447
     25       H        2.153447        1.877362        1.382916

 **********************
 *                    *
 * JOB ENDED NORMALLY *
 *                    *
 **********************



 TOTAL JOB TIME:             2.21 SECONDS

 == MOPAC DONE ==
