 *******************************************************************************
 ** Site#: 36969        For non-commercial use only    Version 21.051W 64BITS **
 *******************************************************************************
 ** Cite this program as: MOPAC2016, Version: 21.051W, James J. P. Stewart,   **
 ** Stewart Computational Chemistry, web: HTTP://OpenMOPAC.net. Days left: 292**
 *******************************************************************************
 **                                                                           **
 **                                MOPAC2016                                  **
 **                                                                           **
 *******************************************************************************

                              PM7 CALCULATION RESULTS

 *******************************************************************************
 *  CALCULATION DONE:                                Tue May  4 09:32:46 2021  *
 *  PM7        - The PM7 Hamiltonian to be used
 *  T=         - A TIME OF 172800.0 SECONDS REQUESTED
 *  DUMP=N     - RESTART FILE WRITTEN EVERY 7200.0 SECONDS REQUESTED
 *******************************************************************************
PM7
 Title

   ATOM   CHEMICAL          X               Y               Z
  NUMBER   SYMBOL      (ANGSTROMS)     (ANGSTROMS)     (ANGSTROMS)
 
     1       C         -1.01932000  *  -2.05594000  *   0.17936000  *
     2       C          0.04720000  *  -1.62179000  *  -0.83672000  *
     3       C          1.10157000  *  -2.66655000  *  -1.13992000  *
     4       C          0.91723000  *  -3.98014000  *  -0.84800000  *
     5       C         -0.37298000  *  -4.45711000  *  -0.20135000  *
     6       C         -1.51054000  *  -3.43091000  *  -0.24963000  *
     7       C          0.51697000  *  -0.14312000  *  -0.95003000  *
     8       C         -0.21907000  *   0.78174000  *   0.03680000  *
     9       N          1.93719000  *  -4.96258000  *  -1.06272000  *
    10       C          3.20524000  *  -4.73131000  *  -1.74693000  *
    11       C          2.97408000  *  -4.42631000  *  -3.23650000  *
    12       C          4.10032000  *  -5.97302000  *  -1.62612000  *
    13       H         -1.88309000  *  -1.36029000  *   0.14194000  *
    14       H         -0.60849000  *  -2.08233000  *   1.21116000  *
    15       H          2.03801000  *  -2.31940000  *  -1.55796000  *
    16       H         -0.13585000  *  -4.72307000  *   0.85124000  *
    17       H         -0.73871000  *  -5.37164000  *  -0.71624000  *
    18       H         -2.35386000  *  -3.77722000  *   0.38482000  *
    19       H         -1.88258000  *  -3.34890000  *  -1.29711000  *
    20       H          1.58297000  *  -0.10995000  *  -0.63222000  *
    21       H         -0.10389000  *   0.39402000  *   1.07135000  *
    22       H          0.23718000  *   1.78745000  *   0.05350000  *
    23       H         -1.29976000  *   0.86245000  *  -0.19744000  *
    24       H          1.75378000  *  -5.90870000  *  -0.69048000  *
    25       H          3.74000000  *  -3.88787000  *  -1.25853000  *
    26       H          3.94710000  *  -4.25418000  *  -3.74430000  *
    27       H          2.46034000  *  -5.27987000  *  -3.72825000  *
    28       H          2.35392000  *  -3.52352000  *  -3.39157000  *
    29       H          5.07830000  *  -5.79629000  *  -2.12279000  *
    30       H          4.29037000  *  -6.20231000  *  -0.55585000  *
    31       H          3.61436000  *  -6.85525000  *  -2.09723000  *
    32       C         -0.30609000  *   2.59859000  *  -2.62373000  *
    33       C          0.89187000  *   1.67418000  *  -2.86989000  *
    34       C          0.42909000  *   0.25928000  *  -2.46741000  *
    35       C         -1.01446000  *   0.24564000  *  -3.01285000  *
    36       C         -1.44365000  *   1.66985000  *  -2.88047000  *
    37       O         -2.60804000  *   2.02953000  *  -2.94404000  *
    38       C          2.22082000  *   2.16221000  *  -2.29647000  *
    39       H         -0.26977000  *   3.45692000  *  -3.32866000  *
    40       H         -0.40007000  *   2.99147000  *  -1.59539000  *
    41       H          1.00474000  *   1.62814000  *  -3.98079000  *
    42       H          1.04807000  *  -0.49064000  *  -3.00839000  *
    43       H         -1.66127000  *  -0.48025000  *  -2.47644000  *
    44       H          2.17421000  *   2.24963000  *  -1.19282000  *
    45       H          2.46493000  *   3.16003000  *  -2.71893000  *
    46       H          3.03024000  *   1.45292000  *  -2.56954000  *
 


          CARTESIAN COORDINATES 

    NO.       ATOM           X           Y           Z

     1         C         -1.0193     -2.0559      0.1794
     2         C          0.0472     -1.6218     -0.8367
     3         C          1.1016     -2.6665     -1.1399
     4         C          0.9172     -3.9801     -0.8480
     5         C         -0.3730     -4.4571     -0.2014
     6         C         -1.5105     -3.4309     -0.2496
     7         C          0.5170     -0.1431     -0.9500
     8         C         -0.2191      0.7817      0.0368
     9         N          1.9372     -4.9626     -1.0627
    10         C          3.2052     -4.7313     -1.7469
    11         C          2.9741     -4.4263     -3.2365
    12         C          4.1003     -5.9730     -1.6261
    13         H         -1.8831     -1.3603      0.1419
    14         H         -0.6085     -2.0823      1.2112
    15         H          2.0380     -2.3194     -1.5580
    16         H         -0.1358     -4.7231      0.8512
    17         H         -0.7387     -5.3716     -0.7162
    18         H         -2.3539     -3.7772      0.3848
    19         H         -1.8826     -3.3489     -1.2971
    20         H          1.5830     -0.1100     -0.6322
    21         H         -0.1039      0.3940      1.0714
    22         H          0.2372      1.7874      0.0535
    23         H         -1.2998      0.8625     -0.1974
    24         H          1.7538     -5.9087     -0.6905
    25         H          3.7400     -3.8879     -1.2585
    26         H          3.9471     -4.2542     -3.7443
    27         H          2.4603     -5.2799     -3.7283
    28         H          2.3539     -3.5235     -3.3916
    29         H          5.0783     -5.7963     -2.1228
    30         H          4.2904     -6.2023     -0.5559
    31         H          3.6144     -6.8552     -2.0972
    32         C         -0.3061      2.5986     -2.6237
    33         C          0.8919      1.6742     -2.8699
    34         C          0.4291      0.2593     -2.4674
    35         C         -1.0145      0.2456     -3.0128
    36         C         -1.4436      1.6699     -2.8805
    37         O         -2.6080      2.0295     -2.9440
    38         C          2.2208      2.1622     -2.2965
    39         H         -0.2698      3.4569     -3.3287
    40         H         -0.4001      2.9915     -1.5954
    41         H          1.0047      1.6281     -3.9808
    42         H          1.0481     -0.4906     -3.0084
    43         H         -1.6613     -0.4803     -2.4764
    44         H          2.1742      2.2496     -1.1928
    45         H          2.4649      3.1600     -2.7189
    46         H          3.0302      1.4529     -2.5695

 General Reference for PM7:
 "Optimization of Parameters for Semiempirical Methods VI: More Modifications to the 
 NDDO Approximations and Re-optimization of Parameters", J. J. P. Stewart, J. Mol. Mod., 1:32, 19 (2013)
 https://link.springer.com/article/10.1007/s00894-012-1667-x

           Empirical Formula: C17 H27 N O  =    46 atoms



      MOLECULAR POINT GROUP   :   C1  


      RHF CALCULATION, NO. OF DOUBLY OCCUPIED LEVELS = 53


          Geometry optimization using L-BFGS
 CYCLE:     1 TIME:   0.047 TIME LEFT:  2.00D  GRAD.:   248.043 HEAT:  47.02608
 CYCLE:     2 TIME:   0.023 TIME LEFT:  2.00D  GRAD.:   245.116 HEAT:  46.41429
 CYCLE:     3 TIME:   0.031 TIME LEFT:  2.00D  GRAD.:   153.280 HEAT:  15.40158
 CYCLE:     4 TIME:   0.039 TIME LEFT:  2.00D  GRAD.:   245.794 HEAT:  46.41519
 CYCLE:     5 TIME:   0.031 TIME LEFT:  2.00D  GRAD.:   154.521 HEAT:  15.44717
 CYCLE:     6 TIME:   0.027 TIME LEFT:  2.00D  GRAD.:   116.636 HEAT:  9.850941
 CYCLE:     7 TIME:   0.027 TIME LEFT:  2.00D  GRAD.:    66.187 HEAT:  7.058354
 CYCLE:     8 TIME:   0.027 TIME LEFT:  2.00D  GRAD.:    66.727 HEAT:  3.730051
 CYCLE:     9 TIME:   0.023 TIME LEFT:  2.00D  GRAD.:    72.109 HEAT:-0.4325110E-01
 CYCLE:    10 TIME:   0.027 TIME LEFT:  2.00D  GRAD.:   103.443 HEAT: -5.876076
 CYCLE:    11 TIME:   0.027 TIME LEFT:  2.00D  GRAD.:   300.318 HEAT:  21.96717
 CYCLE:    12 TIME:   0.031 TIME LEFT:  2.00D  GRAD.:   154.132 HEAT: -6.926351
 CYCLE:    13 TIME:   0.027 TIME LEFT:  2.00D  GRAD.:    87.647 HEAT: -14.38032
 CYCLE:    14 TIME:   0.027 TIME LEFT:  2.00D  GRAD.:    85.850 HEAT: -20.25413
 CYCLE:    15 TIME:   0.027 TIME LEFT:  2.00D  GRAD.:   107.464 HEAT: -25.57075
 CYCLE:    16 TIME:   0.023 TIME LEFT:  2.00D  GRAD.:    62.492 HEAT: -29.63064
 CYCLE:    17 TIME:   0.027 TIME LEFT:  2.00D  GRAD.:    45.572 HEAT: -31.68818
 CYCLE:    18 TIME:   0.023 TIME LEFT:  2.00D  GRAD.:    40.890 HEAT: -33.39144
 CYCLE:    19 TIME:   0.031 TIME LEFT:  2.00D  GRAD.:    54.041 HEAT: -35.04396
 CYCLE:    20 TIME:   0.031 TIME LEFT:  2.00D  GRAD.:    39.627 HEAT: -36.33756
 CYCLE:    21 TIME:   0.027 TIME LEFT:  2.00D  GRAD.:    32.314 HEAT: -37.24127
 CYCLE:    22 TIME:   0.027 TIME LEFT:  2.00D  GRAD.:    53.011 HEAT: -38.21784
 CYCLE:    23 TIME:   0.031 TIME LEFT:  2.00D  GRAD.:    39.270 HEAT: -38.96794
 CYCLE:    24 TIME:   0.023 TIME LEFT:  2.00D  GRAD.:    29.850 HEAT: -39.42790
 CYCLE:    25 TIME:   0.031 TIME LEFT:  2.00D  GRAD.:    23.522 HEAT: -40.54666
 CYCLE:    26 TIME:   0.027 TIME LEFT:  2.00D  GRAD.:    39.055 HEAT: -41.26991
 CYCLE:    27 TIME:   0.027 TIME LEFT:  2.00D  GRAD.:    26.363 HEAT: -42.01993
 CYCLE:    28 TIME:   0.031 TIME LEFT:  2.00D  GRAD.:    22.394 HEAT: -42.68512
 CYCLE:    29 TIME:   0.023 TIME LEFT:  2.00D  GRAD.:    33.318 HEAT: -43.09877
 CYCLE:    30 TIME:   0.020 TIME LEFT:  2.00D  GRAD.:    18.826 HEAT: -43.48264
 CYCLE:    31 TIME:   0.027 TIME LEFT:  2.00D  GRAD.:    16.356 HEAT: -43.70300
 CYCLE:    32 TIME:   0.023 TIME LEFT:  2.00D  GRAD.:    18.534 HEAT: -43.99169
 CYCLE:    33 TIME:   0.027 TIME LEFT:  2.00D  GRAD.:    36.015 HEAT: -44.19390
 CYCLE:    34 TIME:   0.027 TIME LEFT:  2.00D  GRAD.:    17.704 HEAT: -44.47512
 CYCLE:    35 TIME:   0.027 TIME LEFT:  2.00D  GRAD.:    16.526 HEAT: -44.72509
 CYCLE:    36 TIME:   0.027 TIME LEFT:  2.00D  GRAD.:    19.945 HEAT: -44.98714
 CYCLE:    37 TIME:   0.023 TIME LEFT:  2.00D  GRAD.:    52.576 HEAT: -45.16358
 CYCLE:    38 TIME:   0.031 TIME LEFT:  2.00D  GRAD.:    14.986 HEAT: -45.54209
 CYCLE:    39 TIME:   0.023 TIME LEFT:  2.00D  GRAD.:    10.419 HEAT: -45.63591
 CYCLE:    40 TIME:   0.020 TIME LEFT:  2.00D  GRAD.:    10.829 HEAT: -45.74917
 CYCLE:    41 TIME:   0.020 TIME LEFT:  2.00D  GRAD.:    14.022 HEAT: -45.87508
 CYCLE:    42 TIME:   0.027 TIME LEFT:  2.00D  GRAD.:    16.536 HEAT: -45.98864
 CYCLE:    43 TIME:   0.020 TIME LEFT:  2.00D  GRAD.:     7.701 HEAT: -46.08742
 CYCLE:    44 TIME:   0.023 TIME LEFT:  2.00D  GRAD.:     7.733 HEAT: -46.14361
 CYCLE:    45 TIME:   0.027 TIME LEFT:  2.00D  GRAD.:     8.193 HEAT: -46.19595
 CYCLE:    46 TIME:   0.027 TIME LEFT:  2.00D  GRAD.:    18.527 HEAT: -46.21579
 CYCLE:    47 TIME:   0.027 TIME LEFT:  2.00D  GRAD.:     5.653 HEAT: -46.28193
 CYCLE:    48 TIME:   0.023 TIME LEFT:  2.00D  GRAD.:     5.034 HEAT: -46.29972
 CYCLE:    49 TIME:   0.027 TIME LEFT:  2.00D  GRAD.:     6.626 HEAT: -46.34030
 CYCLE:    50 TIME:   0.027 TIME LEFT:  2.00D  GRAD.:    11.777 HEAT: -46.37033
 CYCLE:    51 TIME:   0.027 TIME LEFT:  2.00D  GRAD.:     5.819 HEAT: -46.40840
 CYCLE:    52 TIME:   0.023 TIME LEFT:  2.00D  GRAD.:     4.973 HEAT: -46.43572
 CYCLE:    53 TIME:   0.027 TIME LEFT:  2.00D  GRAD.:     8.318 HEAT: -46.46971
 CYCLE:    54 TIME:   0.023 TIME LEFT:  2.00D  GRAD.:     6.845 HEAT: -46.51127
 CYCLE:    55 TIME:   0.027 TIME LEFT:  2.00D  GRAD.:     5.755 HEAT: -46.55334
 CYCLE:    56 TIME:   0.031 TIME LEFT:  2.00D  GRAD.:    10.263 HEAT: -46.60451
 CYCLE:    57 TIME:   0.027 TIME LEFT:  2.00D  GRAD.:    13.185 HEAT: -46.63208
 CYCLE:    58 TIME:   0.027 TIME LEFT:  2.00D  GRAD.:     5.308 HEAT: -46.66774
 CYCLE:    59 TIME:   0.027 TIME LEFT:  2.00D  GRAD.:     4.007 HEAT: -46.68608
 CYCLE:    60 TIME:   0.023 TIME LEFT:  2.00D  GRAD.:     4.464 HEAT: -46.70590
 CYCLE:    61 TIME:   0.023 TIME LEFT:  2.00D  GRAD.:     4.604 HEAT: -46.73358
 CYCLE:    62 TIME:   0.027 TIME LEFT:  2.00D  GRAD.:    14.255 HEAT: -46.73245
 CYCLE:    63 TIME:   0.027 TIME LEFT:  2.00D  GRAD.:     4.300 HEAT: -46.76727
 CYCLE:    64 TIME:   0.027 TIME LEFT:  2.00D  GRAD.:     2.931 HEAT: -46.77399
 CYCLE:    65 TIME:   0.027 TIME LEFT:  2.00D  GRAD.:     4.482 HEAT: -46.78789
 CYCLE:    66 TIME:   0.023 TIME LEFT:  2.00D  GRAD.:     5.409 HEAT: -46.80437
 CYCLE:    67 TIME:   0.027 TIME LEFT:  2.00D  GRAD.:    11.612 HEAT: -46.82993
 CYCLE:    68 TIME:   0.031 TIME LEFT:  2.00D  GRAD.:     5.480 HEAT: -46.86362
 CYCLE:    69 TIME:   0.031 TIME LEFT:  2.00D  GRAD.:     4.640 HEAT: -46.88689
 CYCLE:    70 TIME:   0.020 TIME LEFT:  2.00D  GRAD.:     8.425 HEAT: -46.93026
 CYCLE:    71 TIME:   0.027 TIME LEFT:  2.00D  GRAD.:     6.549 HEAT: -46.96419
 CYCLE:    72 TIME:   0.031 TIME LEFT:  2.00D  GRAD.:     5.298 HEAT: -47.00800
 CYCLE:    73 TIME:   0.035 TIME LEFT:  2.00D  GRAD.:    19.677 HEAT: -46.98695
 CYCLE:    74 TIME:   0.027 TIME LEFT:  2.00D  GRAD.:     4.405 HEAT: -47.03424
 CYCLE:    75 TIME:   0.023 TIME LEFT:  2.00D  GRAD.:     3.268 HEAT: -47.04220
 CYCLE:    76 TIME:   0.023 TIME LEFT:  2.00D  GRAD.:     6.402 HEAT: -47.05936
 CYCLE:    77 TIME:   0.023 TIME LEFT:  2.00D  GRAD.:     4.824 HEAT: -47.07791
 CYCLE:    78 TIME:   0.023 TIME LEFT:  2.00D  GRAD.:     3.701 HEAT: -47.10481
 CYCLE:    79 TIME:   0.023 TIME LEFT:  2.00D  GRAD.:     7.818 HEAT: -47.11168
 CYCLE:    80 TIME:   0.023 TIME LEFT:  2.00D  GRAD.:     3.492 HEAT: -47.12402
 CYCLE:    81 TIME:   0.027 TIME LEFT:  2.00D  GRAD.:     3.162 HEAT: -47.13254
 CYCLE:    82 TIME:   0.031 TIME LEFT:  2.00D  GRAD.:     3.856 HEAT: -47.14439
 CYCLE:    83 TIME:   0.031 TIME LEFT:  2.00D  GRAD.:     4.933 HEAT: -47.15925
 CYCLE:    84 TIME:   0.027 TIME LEFT:  2.00D  GRAD.:     9.258 HEAT: -47.16217
 CYCLE:    85 TIME:   0.031 TIME LEFT:  2.00D  GRAD.:     2.617 HEAT: -47.17766
 CYCLE:    86 TIME:   0.031 TIME LEFT:  2.00D  GRAD.:     2.128 HEAT: -47.18147
 CYCLE:    87 TIME:   0.031 TIME LEFT:  2.00D  GRAD.:     2.638 HEAT: -47.18670
 CYCLE:    88 TIME:   0.031 TIME LEFT:  2.00D  GRAD.:     3.812 HEAT: -47.19573
 CYCLE:    89 TIME:   0.031 TIME LEFT:  2.00D  GRAD.:     5.254 HEAT: -47.19898
 CYCLE:    90 TIME:   0.023 TIME LEFT:  2.00D  GRAD.:     2.203 HEAT: -47.20680
 CYCLE:    91 TIME:   0.027 TIME LEFT:  2.00D  GRAD.:     2.168 HEAT: -47.21159
 CYCLE:    92 TIME:   0.031 TIME LEFT:  2.00D  GRAD.:     2.682 HEAT: -47.21713
 CYCLE:    93 TIME:   0.031 TIME LEFT:  2.00D  GRAD.:     5.115 HEAT: -47.22355
 CYCLE:    94 TIME:   0.027 TIME LEFT:  2.00D  GRAD.:     2.461 HEAT: -47.23147
 CYCLE:    95 TIME:   0.023 TIME LEFT:  2.00D  GRAD.:     2.056 HEAT: -47.23620
 CYCLE:    96 TIME:   0.023 TIME LEFT:  2.00D  GRAD.:     3.091 HEAT: -47.24164
 CYCLE:    97 TIME:   0.023 TIME LEFT:  2.00D  GRAD.:     3.929 HEAT: -47.24697
 CYCLE:    98 TIME:   0.023 TIME LEFT:  2.00D  GRAD.:     2.466 HEAT: -47.25263
 CYCLE:    99 TIME:   0.020 TIME LEFT:  2.00D  GRAD.:     2.171 HEAT: -47.25762
 CYCLE:   100 TIME:   0.020 TIME LEFT:  2.00D  GRAD.:     2.280 HEAT: -47.26066
 CYCLE:   101 TIME:   0.023 TIME LEFT:  2.00D  GRAD.:     2.411 HEAT: -47.26511
 CYCLE:   102 TIME:   0.020 TIME LEFT:  2.00D  GRAD.:     5.709 HEAT: -47.26688
 CYCLE:   103 TIME:   0.023 TIME LEFT:  2.00D  GRAD.:     1.947 HEAT: -47.27417
 CYCLE:   104 TIME:   0.027 TIME LEFT:  2.00D  GRAD.:     1.562 HEAT: -47.27696
 CYCLE:   105 TIME:   0.023 TIME LEFT:  2.00D  GRAD.:     2.282 HEAT: -47.28318
 CYCLE:   106 TIME:   0.031 TIME LEFT:  2.00D  GRAD.:     3.253 HEAT: -47.29245
 CYCLE:   107 TIME:   0.023 TIME LEFT:  2.00D  GRAD.:     4.077 HEAT: -47.30216
 CYCLE:   108 TIME:   0.016 TIME LEFT:  2.00D  GRAD.:     4.091 HEAT: -47.31266
 CYCLE:   109 TIME:   0.023 TIME LEFT:  2.00D  GRAD.:     7.700 HEAT: -47.31907
 CYCLE:   110 TIME:   0.020 TIME LEFT:  2.00D  GRAD.:     6.506 HEAT: -47.33140
 CYCLE:   111 TIME:   0.023 TIME LEFT:  2.00D  GRAD.:     6.125 HEAT: -47.34497
 CYCLE:   112 TIME:   0.016 TIME LEFT:  2.00D  GRAD.:     7.262 HEAT: -47.35886
 CYCLE:   113 TIME:   0.020 TIME LEFT:  2.00D  GRAD.:     6.542 HEAT: -47.38588
 CYCLE:   114 TIME:   0.020 TIME LEFT:  2.00D  GRAD.:     8.754 HEAT: -47.43113
 CYCLE:   115 TIME:   0.023 TIME LEFT:  2.00D  GRAD.:     9.395 HEAT: -47.45691
 CYCLE:   116 TIME:   0.020 TIME LEFT:  2.00D  GRAD.:    22.752 HEAT: -47.39446
 CYCLE:   117 TIME:   0.020 TIME LEFT:  2.00D  GRAD.:     7.460 HEAT: -47.47657
 CYCLE:   118 TIME:   0.031 TIME LEFT:  2.00D  GRAD.:    20.382 HEAT: -47.33149
 CYCLE:   119 TIME:   0.031 TIME LEFT:  2.00D  GRAD.:     7.775 HEAT: -47.48098
 CYCLE:   120 TIME:   0.027 TIME LEFT:  2.00D  GRAD.:    20.199 HEAT: -47.42078
 CYCLE:   121 TIME:   0.027 TIME LEFT:  2.00D  GRAD.:    11.105 HEAT: -47.42389
 CYCLE:   122 TIME:   0.027 TIME LEFT:  2.00D  GRAD.:    39.077 HEAT: -47.23698
 CYCLE:   123 TIME:   0.020 TIME LEFT:  2.00D  GRAD.:    29.662 HEAT: -47.37344
 CYCLE:   124 TIME:   0.031 TIME LEFT:  2.00D  GRAD.:    25.856 HEAT: -47.38651
 CYCLE:   125 TIME:   0.020 TIME LEFT:  2.00D  GRAD.:    11.951 HEAT: -47.48654
 CYCLE:   126 TIME:   0.027 TIME LEFT:  2.00D  GRAD.:    12.831 HEAT: -47.49630
 CYCLE:   127 TIME:   0.031 TIME LEFT:  2.00D  GRAD.:     7.261 HEAT: -47.52965
 CYCLE:   128 TIME:   0.031 TIME LEFT:  2.00D  GRAD.:     3.970 HEAT: -47.53688
 CYCLE:   129 TIME:   0.031 TIME LEFT:  2.00D  GRAD.:     2.357 HEAT: -47.54312
 CYCLE:   130 TIME:   0.023 TIME LEFT:  2.00D  GRAD.:     3.193 HEAT: -47.55107
 CYCLE:   131 TIME:   0.031 TIME LEFT:  2.00D  GRAD.:     6.892 HEAT: -47.56871
 CYCLE:   132 TIME:   0.020 TIME LEFT:  2.00D  GRAD.:     7.289 HEAT: -47.59695
 CYCLE:   133 TIME:   0.027 TIME LEFT:  2.00D  GRAD.:    24.761 HEAT: -47.52198
 CYCLE:   134 TIME:   0.023 TIME LEFT:  2.00D  GRAD.:     4.760 HEAT: -47.62786
 CYCLE:   135 TIME:   0.031 TIME LEFT:  2.00D  GRAD.:     3.269 HEAT: -47.63589
 CYCLE:   136 TIME:   0.027 TIME LEFT:  2.00D  GRAD.:     5.317 HEAT: -47.65304
 CYCLE:   137 TIME:   0.027 TIME LEFT:  2.00D  GRAD.:     6.021 HEAT: -47.66642
 CYCLE:   138 TIME:   0.023 TIME LEFT:  2.00D  GRAD.:     6.415 HEAT: -47.68900
 CYCLE:   139 TIME:   0.031 TIME LEFT:  2.00D  GRAD.:    20.867 HEAT: -47.64950
 CYCLE:   140 TIME:   0.020 TIME LEFT:  2.00D  GRAD.:    17.291 HEAT: -47.66111
 CYCLE:   141 TIME:   0.027 TIME LEFT:  2.00D  GRAD.:     2.343 HEAT: -47.71463
 CYCLE:   142 TIME:   0.020 TIME LEFT:  2.00D  GRAD.:     3.550 HEAT: -47.71371
 CYCLE:   143 TIME:   0.023 TIME LEFT:  2.00D  GRAD.:     4.679 HEAT: -47.72398
 CYCLE:   144 TIME:   0.020 TIME LEFT:  2.00D  GRAD.:     4.620 HEAT: -47.73289
 CYCLE:   145 TIME:   0.023 TIME LEFT:  2.00D  GRAD.:     2.827 HEAT: -47.73991
 CYCLE:   146 TIME:   0.031 TIME LEFT:  2.00D  GRAD.:     3.115 HEAT: -47.75087
 CYCLE:   147 TIME:   0.031 TIME LEFT:  2.00D  GRAD.:     3.092 HEAT: -47.75821
 CYCLE:   148 TIME:   0.023 TIME LEFT:  2.00D  GRAD.:     3.758 HEAT: -47.77196
 CYCLE:   149 TIME:   0.027 TIME LEFT:  2.00D  GRAD.:     7.034 HEAT: -47.77866
 CYCLE:   150 TIME:   0.027 TIME LEFT:  2.00D  GRAD.:     4.013 HEAT: -47.79055
 CYCLE:   151 TIME:   0.027 TIME LEFT:  2.00D  GRAD.:     3.381 HEAT: -47.80646
 CYCLE:   152 TIME:   0.023 TIME LEFT:  2.00D  GRAD.:     4.086 HEAT: -47.81792
 CYCLE:   153 TIME:   0.016 TIME LEFT:  2.00D  GRAD.:    10.578 HEAT: -47.82565
 CYCLE:   154 TIME:   0.027 TIME LEFT:  2.00D  GRAD.:     3.227 HEAT: -47.84578
 CYCLE:   155 TIME:   0.020 TIME LEFT:  2.00D  GRAD.:     2.770 HEAT: -47.85236
 CYCLE:   156 TIME:   0.023 TIME LEFT:  2.00D  GRAD.:     3.779 HEAT: -47.86295
 CYCLE:   157 TIME:   0.023 TIME LEFT:  2.00D  GRAD.:     6.249 HEAT: -47.87403
 CYCLE:   158 TIME:   0.031 TIME LEFT:  2.00D  GRAD.:     4.209 HEAT: -47.88709
 CYCLE:   159 TIME:   0.016 TIME LEFT:  2.00D  GRAD.:     3.085 HEAT: -47.89877
 CYCLE:   160 TIME:   0.020 TIME LEFT:  2.00D  GRAD.:     4.249 HEAT: -47.91078
 CYCLE:   161 TIME:   0.023 TIME LEFT:  2.00D  GRAD.:     4.448 HEAT: -47.91925
 CYCLE:   162 TIME:   0.023 TIME LEFT:  2.00D  GRAD.:     3.208 HEAT: -47.92780
 CYCLE:   163 TIME:   0.023 TIME LEFT:  2.00D  GRAD.:     2.817 HEAT: -47.94396
 CYCLE:   164 TIME:   0.023 TIME LEFT:  2.00D  GRAD.:     3.724 HEAT: -47.95265
 CYCLE:   165 TIME:   0.023 TIME LEFT:  2.00D  GRAD.:     3.236 HEAT: -47.95967
 CYCLE:   166 TIME:   0.023 TIME LEFT:  2.00D  GRAD.:     2.196 HEAT: -47.96493
 CYCLE:   167 TIME:   0.016 TIME LEFT:  2.00D  GRAD.:     2.486 HEAT: -47.97017
 CYCLE:   168 TIME:   0.023 TIME LEFT:  2.00D  GRAD.:     3.107 HEAT: -47.97654
 CYCLE:   169 TIME:   0.023 TIME LEFT:  2.00D  GRAD.:     3.647 HEAT: -47.98455
 CYCLE:   170 TIME:   0.020 TIME LEFT:  2.00D  GRAD.:     3.357 HEAT: -47.99117
 CYCLE:   171 TIME:   0.020 TIME LEFT:  2.00D  GRAD.:     2.536 HEAT: -47.99626
 CYCLE:   172 TIME:   0.016 TIME LEFT:  2.00D  GRAD.:     3.386 HEAT: -48.00308
 CYCLE:   173 TIME:   0.023 TIME LEFT:  2.00D  GRAD.:     3.751 HEAT: -48.01076
 CYCLE:   174 TIME:   0.031 TIME LEFT:  2.00D  GRAD.:     2.889 HEAT: -48.01854
 CYCLE:   175 TIME:   0.027 TIME LEFT:  2.00D  GRAD.:     3.957 HEAT: -48.02974
 CYCLE:   176 TIME:   0.023 TIME LEFT:  2.00D  GRAD.:     5.448 HEAT: -48.03887
 CYCLE:   177 TIME:   0.023 TIME LEFT:  2.00D  GRAD.:     3.956 HEAT: -48.04726
 CYCLE:   178 TIME:   0.023 TIME LEFT:  2.00D  GRAD.:     3.084 HEAT: -48.06721
 CYCLE:   179 TIME:   0.016 TIME LEFT:  2.00D  GRAD.:     2.981 HEAT: -48.07728
 CYCLE:   180 TIME:   0.023 TIME LEFT:  2.00D  GRAD.:     9.277 HEAT: -48.07837
 CYCLE:   181 TIME:   0.023 TIME LEFT:  2.00D  GRAD.:     2.220 HEAT: -48.09691
 CYCLE:   182 TIME:   0.023 TIME LEFT:  2.00D  GRAD.:     2.057 HEAT: -48.10078
 CYCLE:   183 TIME:   0.020 TIME LEFT:  2.00D  GRAD.:     2.502 HEAT: -48.11027
 CYCLE:   184 TIME:   0.023 TIME LEFT:  2.00D  GRAD.:    11.748 HEAT: -48.10549
 CYCLE:   185 TIME:   0.020 TIME LEFT:  2.00D  GRAD.:     2.822 HEAT: -48.12505
 CYCLE:   186 TIME:   0.027 TIME LEFT:  2.00D  GRAD.:     2.071 HEAT: -48.12899
 CYCLE:   187 TIME:   0.023 TIME LEFT:  2.00D  GRAD.:     2.721 HEAT: -48.13622
 CYCLE:   188 TIME:   0.023 TIME LEFT:  2.00D  GRAD.:     3.238 HEAT: -48.14861
 CYCLE:   189 TIME:   0.023 TIME LEFT:  2.00D  GRAD.:     8.863 HEAT: -48.15872
 CYCLE:   190 TIME:   0.023 TIME LEFT:  2.00D  GRAD.:     4.845 HEAT: -48.18151
 CYCLE:   191 TIME:   0.027 TIME LEFT:  2.00D  GRAD.:     3.635 HEAT: -48.19774
 CYCLE:   192 TIME:   0.023 TIME LEFT:  2.00D  GRAD.:     4.816 HEAT: -48.22234
 CYCLE:   193 TIME:   0.020 TIME LEFT:  2.00D  GRAD.:     9.933 HEAT: -48.24004
 CYCLE:   194 TIME:   0.027 TIME LEFT:  2.00D  GRAD.:     5.784 HEAT: -48.26254
 CYCLE:   195 TIME:   0.023 TIME LEFT:  2.00D  GRAD.:     4.185 HEAT: -48.28608
 CYCLE:   196 TIME:   0.023 TIME LEFT:  2.00D  GRAD.:     5.310 HEAT: -48.30110
 CYCLE:   197 TIME:   0.020 TIME LEFT:  2.00D  GRAD.:     8.535 HEAT: -48.32643
 CYCLE:   198 TIME:   0.031 TIME LEFT:  2.00D  GRAD.:     4.312 HEAT: -48.35440
 CYCLE:   199 TIME:   0.020 TIME LEFT:  2.00D  GRAD.:     3.696 HEAT: -48.36591
 CYCLE:   200 TIME:   0.016 TIME LEFT:  2.00D  GRAD.:     4.075 HEAT: -48.37725
 CYCLE:   201 TIME:   0.023 TIME LEFT:  2.00D  GRAD.:     4.697 HEAT: -48.39457
 CYCLE:   202 TIME:   0.027 TIME LEFT:  2.00D  GRAD.:    10.503 HEAT: -48.39706
 CYCLE:   203 TIME:   0.027 TIME LEFT:  2.00D  GRAD.:     3.047 HEAT: -48.41627
 CYCLE:   204 TIME:   0.023 TIME LEFT:  2.00D  GRAD.:     2.502 HEAT: -48.42109
 CYCLE:   205 TIME:   0.027 TIME LEFT:  2.00D  GRAD.:     2.874 HEAT: -48.42791
 CYCLE:   206 TIME:   0.023 TIME LEFT:  2.00D  GRAD.:     4.109 HEAT: -48.44224
 CYCLE:   207 TIME:   0.027 TIME LEFT:  2.00D  GRAD.:    12.870 HEAT: -48.42954
 CYCLE:   208 TIME:   0.027 TIME LEFT:  2.00D  GRAD.:     2.748 HEAT: -48.45484
 CYCLE:   209 TIME:   0.023 TIME LEFT:  2.00D  GRAD.:     2.002 HEAT: -48.45707
 CYCLE:   210 TIME:   0.027 TIME LEFT:  2.00D  GRAD.:     1.697 HEAT: -48.46147
 CYCLE:   211 TIME:   0.035 TIME LEFT:  2.00D  GRAD.:     3.468 HEAT: -48.47241
 CYCLE:   212 TIME:   0.027 TIME LEFT:  2.00D  GRAD.:    15.804 HEAT: -48.44616
 CYCLE:   213 TIME:   0.023 TIME LEFT:  2.00D  GRAD.:     3.038 HEAT: -48.48236
 CYCLE:   214 TIME:   0.027 TIME LEFT:  2.00D  GRAD.:     2.091 HEAT: -48.48661
 CYCLE:   215 TIME:   0.023 TIME LEFT:  2.00D  GRAD.:     3.343 HEAT: -48.49629
 CYCLE:   216 TIME:   0.027 TIME LEFT:  2.00D  GRAD.:     3.260 HEAT: -48.50365
 CYCLE:   217 TIME:   0.020 TIME LEFT:  2.00D  GRAD.:     4.559 HEAT: -48.50953
 CYCLE:   218 TIME:   0.023 TIME LEFT:  2.00D  GRAD.:     2.495 HEAT: -48.51727
 CYCLE:   219 TIME:   0.020 TIME LEFT:  2.00D  GRAD.:     2.465 HEAT: -48.52318
 CYCLE:   220 TIME:   0.023 TIME LEFT:  2.00D  GRAD.:     3.755 HEAT: -48.53218
 CYCLE:   221 TIME:   0.027 TIME LEFT:  2.00D  GRAD.:     4.674 HEAT: -48.54284
 CYCLE:   222 TIME:   0.020 TIME LEFT:  2.00D  GRAD.:     2.724 HEAT: -48.55145
 CYCLE:   223 TIME:   0.031 TIME LEFT:  2.00D  GRAD.:     3.467 HEAT: -48.56063
 CYCLE:   224 TIME:   0.027 TIME LEFT:  2.00D  GRAD.:     4.325 HEAT: -48.57241
 CYCLE:   225 TIME:   0.027 TIME LEFT:  2.00D  GRAD.:    10.379 HEAT: -48.58037
 CYCLE:   226 TIME:   0.031 TIME LEFT:  2.00D  GRAD.:     3.916 HEAT: -48.60036
 CYCLE:   227 TIME:   0.027 TIME LEFT:  2.00D  GRAD.:     2.929 HEAT: -48.60901
 CYCLE:   228 TIME:   0.023 TIME LEFT:  2.00D  GRAD.:     4.134 HEAT: -48.62156
 CYCLE:   229 TIME:   0.023 TIME LEFT:  2.00D  GRAD.:     4.320 HEAT: -48.63362
 CYCLE:   230 TIME:   0.023 TIME LEFT:  2.00D  GRAD.:     4.160 HEAT: -48.65122
 CYCLE:   231 TIME:   0.027 TIME LEFT:  2.00D  GRAD.:     3.361 HEAT: -48.66286
 CYCLE:   232 TIME:   0.020 TIME LEFT:  2.00D  GRAD.:     3.495 HEAT: -48.67163
 CYCLE:   233 TIME:   0.031 TIME LEFT:  2.00D  GRAD.:     6.989 HEAT: -48.68433
 CYCLE:   234 TIME:   0.023 TIME LEFT:  2.00D  GRAD.:     3.551 HEAT: -48.69813
 CYCLE:   235 TIME:   0.023 TIME LEFT:  2.00D  GRAD.:     3.243 HEAT: -48.70624
 CYCLE:   236 TIME:   0.031 TIME LEFT:  2.00D  GRAD.:     3.144 HEAT: -48.72456
 CYCLE:   237 TIME:   0.023 TIME LEFT:  2.00D  GRAD.:     4.495 HEAT: -48.74039
 CYCLE:   238 TIME:   0.027 TIME LEFT:  2.00D  GRAD.:     3.253 HEAT: -48.75074
 CYCLE:   239 TIME:   0.023 TIME LEFT:  2.00D  GRAD.:     3.686 HEAT: -48.76120
 CYCLE:   240 TIME:   0.023 TIME LEFT:  2.00D  GRAD.:     3.100 HEAT: -48.77013
 CYCLE:   241 TIME:   0.031 TIME LEFT:  2.00D  GRAD.:     3.269 HEAT: -48.78144
 CYCLE:   242 TIME:   0.027 TIME LEFT:  2.00D  GRAD.:     4.573 HEAT: -48.80025
 CYCLE:   243 TIME:   0.023 TIME LEFT:  2.00D  GRAD.:     6.140 HEAT: -48.82921
 CYCLE:   244 TIME:   0.023 TIME LEFT:  2.00D  GRAD.:     6.274 HEAT: -48.85922
 CYCLE:   245 TIME:   0.027 TIME LEFT:  2.00D  GRAD.:     6.647 HEAT: -48.89197
 CYCLE:   246 TIME:   0.027 TIME LEFT:  2.00D  GRAD.:     6.728 HEAT: -48.91678
 CYCLE:   247 TIME:   0.023 TIME LEFT:  2.00D  GRAD.:     5.839 HEAT: -48.94421
 CYCLE:   248 TIME:   0.023 TIME LEFT:  2.00D  GRAD.:     6.936 HEAT: -48.99318
 CYCLE:   249 TIME:   0.027 TIME LEFT:  2.00D  GRAD.:     8.681 HEAT: -49.01507
 CYCLE:   250 TIME:   0.023 TIME LEFT:  2.00D  GRAD.:     9.347 HEAT: -49.05141
 CYCLE:   251 TIME:   0.031 TIME LEFT:  2.00D  GRAD.:     4.821 HEAT: -49.07035
 CYCLE:   252 TIME:   0.027 TIME LEFT:  2.00D  GRAD.:     4.628 HEAT: -49.10447
 CYCLE:   253 TIME:   0.027 TIME LEFT:  2.00D  GRAD.:     8.063 HEAT: -49.14012
 CYCLE:   254 TIME:   0.027 TIME LEFT:  2.00D  GRAD.:    12.958 HEAT: -49.16956
 CYCLE:   255 TIME:   0.027 TIME LEFT:  2.00D  GRAD.:     6.210 HEAT: -49.20774
 CYCLE:   256 TIME:   0.027 TIME LEFT:  2.00D  GRAD.:     5.114 HEAT: -49.23997
 CYCLE:   257 TIME:   0.020 TIME LEFT:  2.00D  GRAD.:     6.622 HEAT: -49.26913
 CYCLE:   258 TIME:   0.023 TIME LEFT:  2.00D  GRAD.:    13.519 HEAT: -49.29657
 CYCLE:   259 TIME:   0.027 TIME LEFT:  2.00D  GRAD.:     7.163 HEAT: -49.34878
 CYCLE:   260 TIME:   0.023 TIME LEFT:  2.00D  GRAD.:     6.218 HEAT: -49.39484
 CYCLE:   261 TIME:   0.020 TIME LEFT:  2.00D  GRAD.:     7.079 HEAT: -49.44631
 CYCLE:   262 TIME:   0.027 TIME LEFT:  2.00D  GRAD.:    10.481 HEAT: -49.49648
 CYCLE:   263 TIME:   0.031 TIME LEFT:  2.00D  GRAD.:    32.455 HEAT: -49.36405
 CYCLE:   264 TIME:   0.027 TIME LEFT:  2.00D  GRAD.:     8.175 HEAT: -49.60413
 CYCLE:   265 TIME:   0.031 TIME LEFT:  2.00D  GRAD.:     7.950 HEAT: -49.63026
 CYCLE:   266 TIME:   0.023 TIME LEFT:  2.00D  GRAD.:     5.404 HEAT: -49.68430
 CYCLE:   267 TIME:   0.027 TIME LEFT:  2.00D  GRAD.:     9.976 HEAT: -49.76438
 CYCLE:   268 TIME:   0.023 TIME LEFT:  2.00D  GRAD.:    12.354 HEAT: -49.83381
 CYCLE:   269 TIME:   0.031 TIME LEFT:  2.00D  GRAD.:     7.855 HEAT: -49.88627
 CYCLE:   270 TIME:   0.023 TIME LEFT:  2.00D  GRAD.:     6.630 HEAT: -49.91934
 CYCLE:   271 TIME:   0.020 TIME LEFT:  2.00D  GRAD.:     7.212 HEAT: -49.97315
 CYCLE:   272 TIME:   0.027 TIME LEFT:  2.00D  GRAD.:    16.380 HEAT: -49.97398
 CYCLE:   273 TIME:   0.023 TIME LEFT:  2.00D  GRAD.:     5.950 HEAT: -50.02146
 CYCLE:   274 TIME:   0.023 TIME LEFT:  2.00D  GRAD.:     4.352 HEAT: -50.04006
 CYCLE:   275 TIME:   0.074 TIME LEFT:  2.00D  GRAD.:     7.822 HEAT: -50.07423
 CYCLE:   276 TIME:   0.023 TIME LEFT:  2.00D  GRAD.:     8.202 HEAT: -50.11489
 CYCLE:   277 TIME:   0.023 TIME LEFT:  2.00D  GRAD.:    20.388 HEAT: -50.11593
 CYCLE:   278 TIME:   0.031 TIME LEFT:  2.00D  GRAD.:     6.242 HEAT: -50.21151
 CYCLE:   279 TIME:   0.027 TIME LEFT:  2.00D  GRAD.:     4.497 HEAT: -50.22873
 CYCLE:   280 TIME:   0.020 TIME LEFT:  2.00D  GRAD.:     6.303 HEAT: -50.25565
 CYCLE:   281 TIME:   0.027 TIME LEFT:  2.00D  GRAD.:     8.624 HEAT: -50.28617
 CYCLE:   282 TIME:   0.027 TIME LEFT:  2.00D  GRAD.:    18.982 HEAT: -50.29391
 CYCLE:   283 TIME:   0.027 TIME LEFT:  2.00D  GRAD.:     6.397 HEAT: -50.34788
 CYCLE:   284 TIME:   0.031 TIME LEFT:  2.00D  GRAD.:     4.010 HEAT: -50.36453
 CYCLE:   285 TIME:   0.020 TIME LEFT:  2.00D  GRAD.:     5.080 HEAT: -50.37862
 CYCLE:   286 TIME:   0.023 TIME LEFT:  2.00D  GRAD.:     5.934 HEAT: -50.40044
 CYCLE:   287 TIME:   0.023 TIME LEFT:  2.00D  GRAD.:    17.298 HEAT: -50.38865
 CYCLE:   288 TIME:   0.020 TIME LEFT:  2.00D  GRAD.:     4.657 HEAT: -50.43873
 CYCLE:   289 TIME:   0.023 TIME LEFT:  2.00D  GRAD.:     3.192 HEAT: -50.45042
 CYCLE:   290 TIME:   0.020 TIME LEFT:  2.00D  GRAD.:     4.013 HEAT: -50.46764
 CYCLE:   291 TIME:   0.027 TIME LEFT:  2.00D  GRAD.:     4.563 HEAT: -50.48912
 CYCLE:   292 TIME:   0.023 TIME LEFT:  2.00D  GRAD.:    19.593 HEAT: -50.44981
 CYCLE:   293 TIME:   0.020 TIME LEFT:  2.00D  GRAD.:     4.249 HEAT: -50.52321
 CYCLE:   294 TIME:   0.027 TIME LEFT:  2.00D  GRAD.:     2.864 HEAT: -50.53423
 CYCLE:   295 TIME:   0.027 TIME LEFT:  2.00D  GRAD.:     4.302 HEAT: -50.55225
 CYCLE:   296 TIME:   0.027 TIME LEFT:  2.00D  GRAD.:     7.258 HEAT: -50.56419
 CYCLE:   297 TIME:   0.027 TIME LEFT:  2.00D  GRAD.:     3.917 HEAT: -50.58014
 CYCLE:   298 TIME:   0.027 TIME LEFT:  2.00D  GRAD.:     3.012 HEAT: -50.58968
 CYCLE:   299 TIME:   0.031 TIME LEFT:  2.00D  GRAD.:     4.056 HEAT: -50.59886
 CYCLE:   300 TIME:   0.027 TIME LEFT:  2.00D  GRAD.:     3.996 HEAT: -50.61161
 CYCLE:   301 TIME:   0.023 TIME LEFT:  2.00D  GRAD.:     2.961 HEAT: -50.62198
 CYCLE:   302 TIME:   0.027 TIME LEFT:  2.00D  GRAD.:     3.630 HEAT: -50.63411
 CYCLE:   303 TIME:   0.020 TIME LEFT:  2.00D  GRAD.:     5.351 HEAT: -50.64179
 CYCLE:   304 TIME:   0.031 TIME LEFT:  2.00D  GRAD.:     4.268 HEAT: -50.65016
 CYCLE:   305 TIME:   0.027 TIME LEFT:  2.00D  GRAD.:     5.551 HEAT: -50.65949
 CYCLE:   306 TIME:   0.027 TIME LEFT:  2.00D  GRAD.:     3.906 HEAT: -50.67033
 CYCLE:   307 TIME:   0.027 TIME LEFT:  2.00D  GRAD.:     3.386 HEAT: -50.67863
 CYCLE:   308 TIME:   0.020 TIME LEFT:  2.00D  GRAD.:     3.137 HEAT: -50.69564
 CYCLE:   309 TIME:   0.023 TIME LEFT:  2.00D  GRAD.:     6.574 HEAT: -50.70371
 CYCLE:   310 TIME:   0.023 TIME LEFT:  2.00D  GRAD.:     4.920 HEAT: -50.71429
 CYCLE:   311 TIME:   0.020 TIME LEFT:  2.00D  GRAD.:     3.606 HEAT: -50.72483
 CYCLE:   312 TIME:   0.027 TIME LEFT:  2.00D  GRAD.:     2.939 HEAT: -50.73347
 CYCLE:   313 TIME:   0.023 TIME LEFT:  2.00D  GRAD.:     3.743 HEAT: -50.74197
 CYCLE:   314 TIME:   0.027 TIME LEFT:  2.00D  GRAD.:     2.838 HEAT: -50.74932
 CYCLE:   315 TIME:   0.020 TIME LEFT:  2.00D  GRAD.:     2.496 HEAT: -50.75573
 CYCLE:   316 TIME:   0.027 TIME LEFT:  2.00D  GRAD.:     2.377 HEAT: -50.76575
 CYCLE:   317 TIME:   0.027 TIME LEFT:  2.00D  GRAD.:     3.989 HEAT: -50.77358
 CYCLE:   318 TIME:   0.020 TIME LEFT:  2.00D  GRAD.:     2.343 HEAT: -50.78033
 CYCLE:   319 TIME:   0.027 TIME LEFT:  2.00D  GRAD.:     2.498 HEAT: -50.78496
 CYCLE:   320 TIME:   0.023 TIME LEFT:  2.00D  GRAD.:     5.502 HEAT: -50.78766
 CYCLE:   321 TIME:   0.027 TIME LEFT:  2.00D  GRAD.:     2.940 HEAT: -50.79297
 CYCLE:   322 TIME:   0.023 TIME LEFT:  2.00D  GRAD.:     1.807 HEAT: -50.79446
 CYCLE:   323 TIME:   0.023 TIME LEFT:  2.00D  GRAD.:     1.296 HEAT: -50.79895
 CYCLE:   324 TIME:   0.027 TIME LEFT:  2.00D  GRAD.:     1.725 HEAT: -50.80194
 CYCLE:   325 TIME:   0.023 TIME LEFT:  2.00D  GRAD.:     9.342 HEAT: -50.79176
 CYCLE:   326 TIME:   0.027 TIME LEFT:  2.00D  GRAD.:     1.576 HEAT: -50.80788
 CYCLE:   327 TIME:   0.027 TIME LEFT:  2.00D  GRAD.:     1.452 HEAT: -50.80841
 CYCLE:   328 TIME:   0.027 TIME LEFT:  2.00D  GRAD.:     1.317 HEAT: -50.81298
 CYCLE:   329 TIME:   0.031 TIME LEFT:  2.00D  GRAD.:     3.401 HEAT: -50.81463
 CYCLE:   330 TIME:   0.027 TIME LEFT:  2.00D  GRAD.:     1.455 HEAT: -50.81724
 CYCLE:   331 TIME:   0.023 TIME LEFT:  2.00D  GRAD.:     1.671 HEAT: -50.81873
 CYCLE:   332 TIME:   0.031 TIME LEFT:  2.00D  GRAD.:     2.159 HEAT: -50.82192
 CYCLE:   333 TIME:   0.031 TIME LEFT:  2.00D  GRAD.:     4.961 HEAT: -50.82412
 CYCLE:   334 TIME:   0.023 TIME LEFT:  2.00D  GRAD.:     1.900 HEAT: -50.82906
 CYCLE:   335 TIME:   0.027 TIME LEFT:  2.00D  GRAD.:     1.585 HEAT: -50.83125
 CYCLE:   336 TIME:   0.023 TIME LEFT:  2.00D  GRAD.:     1.878 HEAT: -50.83404
 CYCLE:   337 TIME:   0.027 TIME LEFT:  2.00D  GRAD.:     3.603 HEAT: -50.83796
 CYCLE:   338 TIME:   0.023 TIME LEFT:  2.00D  GRAD.:     3.066 HEAT: -50.84094
 CYCLE:   339 TIME:   0.023 TIME LEFT:  2.00D  GRAD.:     1.911 HEAT: -50.84373
 CYCLE:   340 TIME:   0.023 TIME LEFT:  2.00D  GRAD.:     1.740 HEAT: -50.84742
 CYCLE:   341 TIME:   0.027 TIME LEFT:  2.00D  GRAD.:     2.082 HEAT: -50.85042
 CYCLE:   342 TIME:   0.031 TIME LEFT:  2.00D  GRAD.:     5.028 HEAT: -50.85204
 CYCLE:   343 TIME:   0.023 TIME LEFT:  2.00D  GRAD.:     1.674 HEAT: -50.85706
 CYCLE:   344 TIME:   0.023 TIME LEFT:  2.00D  GRAD.:     1.735 HEAT: -50.85914
 CYCLE:   345 TIME:   0.023 TIME LEFT:  2.00D  GRAD.:     2.154 HEAT: -50.86369
 CYCLE:   346 TIME:   0.023 TIME LEFT:  2.00D  GRAD.:     4.290 HEAT: -50.86958
 CYCLE:   347 TIME:   0.031 TIME LEFT:  2.00D  GRAD.:     3.018 HEAT: -50.87410
 CYCLE:   348 TIME:   0.027 TIME LEFT:  2.00D  GRAD.:     2.680 HEAT: -50.87804
 CYCLE:   349 TIME:   0.023 TIME LEFT:  2.00D  GRAD.:     2.517 HEAT: -50.88188
 CYCLE:   350 TIME:   0.031 TIME LEFT:  2.00D  GRAD.:     3.198 HEAT: -50.88464
 CYCLE:   351 TIME:   0.023 TIME LEFT:  2.00D  GRAD.:     2.945 HEAT: -50.89042
 CYCLE:   352 TIME:   0.023 TIME LEFT:  2.00D  GRAD.:     3.898 HEAT: -50.89229
 CYCLE:   353 TIME:   0.020 TIME LEFT:  2.00D  GRAD.:     3.529 HEAT: -50.89688
 CYCLE:   354 TIME:   0.031 TIME LEFT:  2.00D  GRAD.:     1.629 HEAT: -50.90063
 CYCLE:   355 TIME:   0.020 TIME LEFT:  2.00D  GRAD.:     1.367 HEAT: -50.90232
 CYCLE:   356 TIME:   0.016 TIME LEFT:  2.00D  GRAD.:     1.653 HEAT: -50.90569
 CYCLE:   357 TIME:   0.027 TIME LEFT:  2.00D  GRAD.:     2.787 HEAT: -50.90891
 CYCLE:   358 TIME:   0.027 TIME LEFT:  2.00D  GRAD.:     7.350 HEAT: -50.90591
 CYCLE:   359 TIME:   0.023 TIME LEFT:  2.00D  GRAD.:     1.750 HEAT: -50.91356
 CYCLE:   360 TIME:   0.027 TIME LEFT:  2.00D  GRAD.:     1.090 HEAT: -50.91461
 CYCLE:   361 TIME:   0.027 TIME LEFT:  2.00D  GRAD.:     1.232 HEAT: -50.91683
 CYCLE:   362 TIME:   0.023 TIME LEFT:  2.00D  GRAD.:     2.129 HEAT: -50.92087
 CYCLE:   363 TIME:   0.023 TIME LEFT:  2.00D  GRAD.:     5.410 HEAT: -50.92123
 CYCLE:   364 TIME:   0.027 TIME LEFT:  2.00D  GRAD.:     1.912 HEAT: -50.92590
 CYCLE:   365 TIME:   0.027 TIME LEFT:  2.00D  GRAD.:     1.186 HEAT: -50.92797
 CYCLE:   366 TIME:   0.023 TIME LEFT:  2.00D  GRAD.:     1.601 HEAT: -50.92994
 CYCLE:   367 TIME:   0.027 TIME LEFT:  2.00D  GRAD.:     2.463 HEAT: -50.93266
 CYCLE:   368 TIME:   0.023 TIME LEFT:  2.00D  GRAD.:     5.098 HEAT: -50.93307
 CYCLE:   369 TIME:   0.027 TIME LEFT:  2.00D  GRAD.:     1.917 HEAT: -50.93793
 CYCLE:   370 TIME:   0.016 TIME LEFT:  2.00D  GRAD.:     1.397 HEAT: -50.94012
 CYCLE:   371 TIME:   0.016 TIME LEFT:  2.00D  GRAD.:     1.669 HEAT: -50.94264
 CYCLE:   372 TIME:   0.027 TIME LEFT:  2.00D  GRAD.:     2.267 HEAT: -50.94643
 CYCLE:   373 TIME:   0.023 TIME LEFT:  2.00D  GRAD.:     8.687 HEAT: -50.94093
 CYCLE:   374 TIME:   0.023 TIME LEFT:  2.00D  GRAD.:     3.401 HEAT: -50.94958
 CYCLE:   375 TIME:   0.031 TIME LEFT:  2.00D  GRAD.:     2.402 HEAT: -50.94918
 CYCLE:   376 TIME:   0.020 TIME LEFT:  2.00D  GRAD.:     5.707 HEAT: -50.95009
 CYCLE:   377 TIME:   0.023 TIME LEFT:  2.00D  GRAD.:     2.674 HEAT: -50.95669
 CYCLE:   378 TIME:   0.023 TIME LEFT:  2.00D  GRAD.:     3.213 HEAT: -50.95775
 CYCLE:   379 TIME:   0.023 TIME LEFT:  2.00D  GRAD.:     6.062 HEAT: -50.95134
 CYCLE:   380 TIME:   0.027 TIME LEFT:  2.00D  GRAD.:     1.237 HEAT: -50.96283
 CYCLE:   381 TIME:   0.027 TIME LEFT:  2.00D  GRAD.:     0.987 HEAT: -50.96483

 -------------------------------------------------------------------------------
 PM7
 Title



     HERBERTS TEST WAS SATISFIED IN BFGS                      
     SCF FIELD WAS ACHIEVED                                   


                              PM7 CALCULATION
                                                       MOPAC2016 (Version: 21.051W)
                                                       Tue May  4 09:32:56 2021
                                                       No. of days remaining = 292




          FINAL HEAT OF FORMATION =        -50.96484 KCAL/MOL =    -213.23689 KJ/MOL


          TOTAL ENERGY            =      -2934.38678 EV
          ELECTRONIC ENERGY       =     -23592.38616 EV  POINT GROUP:     C1  
          CORE-CORE REPULSION     =      20657.99937 EV
          COSMO AREA              =        294.62 SQUARE ANGSTROMS
          COSMO VOLUME            =        372.32 CUBIC ANGSTROMS

          GRADIENT NORM           =          0.98683 = 0.14550 PER ATOM
          IONIZATION POTENTIAL    =          7.735497 EV
          HOMO LUMO ENERGIES (EV) =         -7.735 -0.001
          NO. OF FILLED LEVELS    =         53
          MOLECULAR WEIGHT        =        261.4064

          MOLECULAR DIMENSIONS (Angstroms)

            Atom       Atom       Distance
            H    39    H    30     9.45775
            H    42    H    21     7.44829
            H    45    H    18     6.40886


          SCF CALCULATIONS        =        382
 
          WALL-CLOCK TIME         =          9.762 SECONDS
          COMPUTATION TIME        =         38.734 SECONDS




   ATOM   CHEMICAL          X               Y               Z
  NUMBER   SYMBOL      (ANGSTROMS)     (ANGSTROMS)     (ANGSTROMS)
 
     1       C         -1.00777772  *  -1.51552105  *   0.44226906  *
     2       C          0.44235460  *  -1.17038227  *   0.26352247  *
     3       C          1.30208955  *  -2.17170074  *  -0.34051253  *
     4       C          0.84526036  *  -3.38317315  *  -0.74266448  *
     5       C         -0.59519674  *  -3.78679587  *  -0.55650166  *
     6       C         -1.49038125  *  -2.54545178  *  -0.58453738  *
     7       C          0.94608426  *   0.01438040  *   0.65951737  *
     8       C          0.14518606  *   1.10045209  *   1.28782550  *
     9       N          1.65271686  *  -4.39543394  *  -1.25952718  *
    10       C          3.00760936  *  -4.09230115  *  -1.75220160  *
    11       C          2.97053783  *  -3.31339794  *  -3.07892449  *
    12       C          3.75625406  *  -5.42167732  *  -1.93520646  *
    13       H         -1.64154948  *  -0.60626112  *   0.36806522  *
    14       H         -1.15844130  *  -1.90423242  *   1.47126126  *
    15       H          2.34732623  *  -1.90006264  *  -0.44449279  *
    16       H         -0.69580615  *  -4.30780790  *   0.42070976  *
    17       H         -0.92651056  *  -4.51067015  *  -1.32424778  *
    18       H         -2.54193757  *  -2.82159953  *  -0.38445558  *
    19       H         -1.48473907  *  -2.09573216  *  -1.59746576  *
    20       H          2.00503944  *   0.23113790  *   0.55294547  *
    21       H         -0.11139890  *   0.84787725  *   2.32785268  *
    22       H          0.68961622  *   2.05254201  *   1.31009342  *
    23       H         -0.80254552  *   1.28132793  *   0.75942091  *
    24       H          1.18672047  *  -5.14055415  *  -1.75915664  *
    25       H          3.53136880  *  -3.47880730  *  -0.97001494  *
    26       H          3.98068821  *  -3.04892451  *  -3.40563455  *
    27       H          2.50359199  *  -3.89496653  *  -3.87892978  *
    28       H          2.39720119  *  -2.38254371  *  -2.97235238  *
    29       H          4.79271485  *  -5.24472326  *  -2.24057126  *
    30       H          3.77776032  *  -5.99170276  *  -0.99717053  *
    31       H          3.29135678  *  -6.05587639  *  -2.69652797  *
    32       C         -0.27912077  *   1.16537618  *  -2.57645944  *
    33       C          0.90278955  *   0.75302061  *  -3.48980766  *
    34       C          0.42717501  *  -0.51747456  *  -4.16502114  *
    35       C         -0.83110576  *  -0.83835436  *  -3.83468571  *
    36       C         -1.37502646  *   0.15904697  *  -2.87591248  *
    37       O         -2.48262017  *   0.17615785  *  -2.41164134  *
    38       C          2.18296161  *   0.50130581  *  -2.70216978  *
    39       H         -0.61704012  *   2.19683569  *  -2.75288358  *
    40       H         -0.00780430  *   1.11329070  *  -1.50120479  *
    41       H          1.08286050  *   1.54007469  *  -4.25936648  *
    42       H          1.08897151  *  -1.04800453  *  -4.82758246  *
    43       H         -1.42458402  *  -1.66986676  *  -4.16302689  *
    44       H          2.03470437  *  -0.28600086  *  -1.94578111  *
    45       H          2.50375105  *   1.40130330  *  -2.16453179  *
    46       H          3.00747112  *   0.18949254  *  -3.35073578  *

                             CARTESIAN COORDINATES

   1    C       -1.007777716    -1.515521049     0.442269062
   2    C        0.442354599    -1.170382273     0.263522467
   3    C        1.302089551    -2.171700735    -0.340512525
   4    C        0.845260362    -3.383173150    -0.742664481
   5    C       -0.595196737    -3.786795865    -0.556501655
   6    C       -1.490381249    -2.545451778    -0.584537380
   7    C        0.946084260     0.014380401     0.659517369
   8    C        0.145186061     1.100452092     1.287825498
   9    N        1.652716855    -4.395433943    -1.259527183
  10    C        3.007609363    -4.092301149    -1.752201602
  11    C        2.970537826    -3.313397940    -3.078924491
  12    C        3.756254059    -5.421677316    -1.935206463
  13    H       -1.641549479    -0.606261125     0.368065215
  14    H       -1.158441302    -1.904232416     1.471261256
  15    H        2.347326228    -1.900062643    -0.444492792
  16    H       -0.695806150    -4.307807901     0.420709761
  17    H       -0.926510563    -4.510670149    -1.324247777
  18    H       -2.541937569    -2.821599534    -0.384455575
  19    H       -1.484739071    -2.095732164    -1.597465759
  20    H        2.005039435     0.231137901     0.552945471
  21    H       -0.111398899     0.847877247     2.327852683
  22    H        0.689616222     2.052542009     1.310093416
  23    H       -0.802545520     1.281327930     0.759420906
  24    H        1.186720471    -5.140554148    -1.759156642
  25    H        3.531368801    -3.478807299    -0.970014935
  26    H        3.980688210    -3.048924514    -3.405634548
  27    H        2.503591988    -3.894966527    -3.878929783
  28    H        2.397201187    -2.382543710    -2.972352381
  29    H        4.792714848    -5.244723258    -2.240571258
  30    H        3.777760324    -5.991702757    -0.997170533
  31    H        3.291356779    -6.055876386    -2.696527973
  32    C       -0.279120771     1.165376183    -2.576459442
  33    C        0.902789550     0.753020613    -3.489807662
  34    C        0.427175007    -0.517474558    -4.165021143
  35    C       -0.831105764    -0.838354365    -3.834685714
  36    C       -1.375026455     0.159046975    -2.875912476
  37    O       -2.482620166     0.176157846    -2.411641339
  38    C        2.182961612     0.501305813    -2.702169777
  39    H       -0.617040120     2.196835691    -2.752883576
  40    H       -0.007804297     1.113290699    -1.501204789
  41    H        1.082860499     1.540074687    -4.259366480
  42    H        1.088971515    -1.048004534    -4.827582461
  43    H       -1.424584018    -1.669866761    -4.163026893
  44    H        2.034704374    -0.286000863    -1.945781114
  45    H        2.503751055     1.401303303    -2.164531786
  46    H        3.007471120     0.189492544    -3.350735775


           Empirical Formula: C17 H27 N O  =    46 atoms



      MOLECULAR POINT GROUP   :   C1  


                  EIGENVALUES  
 -36.33314 -31.25091 -30.16395 -29.78724 -28.05466 -27.18457 -26.24817 -25.52199
 -24.55920 -24.43477 -24.08895 -22.25462 -21.98689 -21.21281 -19.85769 -19.39161
 -18.96593 -18.53888 -17.24569 -16.90873 -16.84329 -16.35393 -16.00046 -15.71496
 -15.18389 -14.94019 -14.59314 -14.49026 -14.37897 -14.22547 -14.12404 -14.01033
 -13.67543 -13.58089 -13.45951 -13.40890 -13.22164 -13.14508 -12.71193 -12.48609
 -12.40877 -12.27968 -12.22781 -11.97678 -11.93881 -11.89765 -11.47199 -11.02191
 -10.80265 -10.42673  -9.93894  -9.71122  -7.73550  -0.00101   0.74913   1.81361
   2.36795   2.61085   3.21672   3.43211   3.74223   3.81664   3.95422   3.98331
   4.21094   4.22477   4.39212   4.57271   4.66141   5.05016   5.14840   5.21799
   5.41389   5.43181   5.44632   5.52286   5.57418   5.59661   5.63630   5.65859
   5.67824   5.70290   5.76524   5.81151   5.82376   5.90784   5.95255   6.02006
   6.14334   6.17832   6.24552   6.36686   6.45660   6.53811   6.66441   6.67830
   6.75875   6.77119   6.81309   6.91816   6.99282   7.07871   7.30883


              NET ATOMIC CHARGES AND DIPOLE CONTRIBUTIONS

  ATOM NO.   TYPE          CHARGE      No. of ELECS.   s-Pop       p-Pop       
    1          C          -0.284169        4.2842     1.05590     3.22827
    2          C           0.065583        3.9344     1.06710     2.86732
    3          C          -0.401260        4.4013     1.05940     3.34186
    4          C           0.262486        3.7375     1.07160     2.66591
    5          C          -0.305376        4.3054     1.06037     3.24500
    6          C          -0.250667        4.2507     1.05748     3.19319
    7          C          -0.251612        4.2516     1.07609     3.17552
    8          C          -0.427612        4.4276     1.04475     3.38286
    9          N          -0.561889        5.5619     1.58045     3.98144
   10          C           0.130961        3.8690     1.06313     2.80590
   11          C          -0.500852        4.5009     1.06329     3.43756
   12          C          -0.472501        4.4725     1.05958     3.41292
   13          H           0.155743        0.8443     0.84426
   14          H           0.152173        0.8478     0.84783
   15          H           0.156312        0.8437     0.84369
   16          H           0.165374        0.8346     0.83463
   17          H           0.141332        0.8587     0.85867
   18          H           0.142284        0.8577     0.85772
   19          H           0.149525        0.8505     0.85048
   20          H           0.141417        0.8586     0.85858
   21          H           0.151495        0.8485     0.84850
   22          H           0.139705        0.8603     0.86030
   23          H           0.148564        0.8514     0.85144
   24          H           0.290626        0.7094     0.70937
   25          H           0.146375        0.8536     0.85362
   26          H           0.151013        0.8490     0.84899
   27          H           0.148385        0.8516     0.85162
   28          H           0.161879        0.8381     0.83812
   29          H           0.151490        0.8485     0.84851
   30          H           0.159953        0.8400     0.84005
   31          H           0.145822        0.8542     0.85418
   32          C          -0.407304        4.4073     1.07994     3.32736
   33          C          -0.088018        4.0880     1.06038     3.02764
   34          C          -0.069336        4.0693     1.11346     2.95587
   35          C          -0.313438        4.3134     1.10485     3.20859
   36          C           0.494062        3.5059     1.11968     2.38626
   37          O          -0.460900        6.4609     1.87524     4.58566
   38          C          -0.457527        4.4575     1.05517     3.40235
   39          H           0.168328        0.8317     0.83167
   40          H           0.195703        0.8043     0.80430
   41          H           0.147329        0.8527     0.85267
   42          H           0.148664        0.8513     0.85134
   43          H           0.172957        0.8270     0.82704
   44          H           0.170482        0.8295     0.82952
   45          H           0.152974        0.8470     0.84703
   46          H           0.143466        0.8565     0.85653
 DIPOLE           X         Y         Z       TOTAL
 POINT-CHG.     3.442    -1.296    -1.984     4.179
 HYBRID        -0.331    -0.429    -0.502     0.739
 SUM            3.111    -1.725    -2.485     4.340


          ATOMIC ORBITAL ELECTRON POPULATIONS

     Atom    s        px        py        pz   
    1  C   1.05590   1.03449   1.10072   1.09307
    2  C   1.06710   0.95637   0.96001   0.95094
    3  C   1.05940   1.09782   1.02547   1.21857
    4  C   1.07160   0.89192   0.88135   0.89264
    5  C   1.06037   1.00229   1.07416   1.16856
    6  C   1.05748   1.07667   1.00200   1.11452
    7  C   1.07609   1.07897   1.00027   1.09628
    8  C   1.04475   1.13676   1.09719   1.14891
    9  N   1.58045   1.15880   1.26340   1.55924
   10  C   1.06313   0.83638   0.98240   0.98712
   11  C   1.06329   1.18161   1.16011   1.09585
   12  C   1.05958   1.14457   1.08499   1.18336
   13  H   0.84426
   14  H   0.84783
   15  H   0.84369
   16  H   0.83463
   17  H   0.85867
   18  H   0.85772
   19  H   0.85048
   20  H   0.85858
   21  H   0.84850
   22  H   0.86030
   23  H   0.85144
   24  H   0.70937
   25  H   0.85362
   26  H   0.84899
   27  H   0.85162
   28  H   0.83812
   29  H   0.84851
   30  H   0.84005
   31  H   0.85418
   32  C   1.07994   1.04960   1.12535   1.15242
   33  C   1.06038   0.97721   1.02501   1.02542
   34  C   1.11346   1.00673   0.98746   0.96169
   35  C   1.10485   1.04269   1.09444   1.07145
   36  C   1.11968   0.81777   0.82255   0.74594
   37  O   1.87524   1.31405   1.74553   1.52607
   38  C   1.05517   1.06544   1.19097   1.14594
   39  H   0.83167
   40  H   0.80430
   41  H   0.85267
   42  H   0.85134
   43  H   0.82704
   44  H   0.82952
   45  H   0.84703
   46  H   0.85653

 **********************
 *                    *
 * JOB ENDED NORMALLY *
 *                    *
 **********************



 TOTAL JOB TIME:             9.77 SECONDS

 == MOPAC DONE ==
