 *******************************************************************************
 ** Site#: 36969        For non-commercial use only    Version 21.051W 64BITS **
 *******************************************************************************
 ** Cite this program as: MOPAC2016, Version: 21.051W, James J. P. Stewart,   **
 ** Stewart Computational Chemistry, web: HTTP://OpenMOPAC.net. Days left: 293**
 *******************************************************************************
 **                                                                           **
 **                                MOPAC2016                                  **
 **                                                                           **
 *******************************************************************************

                              PM7 CALCULATION RESULTS

 *******************************************************************************
 *  CALCULATION DONE:                                Mon May  3 23:53:19 2021  *
 *  PM7        - The PM7 Hamiltonian to be used
 *  GEO-OK     - OVERRIDE INTERATOMIC DISTANCE AND OTHER SAFETY CHECKS
 *  1SCF       - DO 1 SCF AND THEN STOP 
 *  T=         - A TIME OF 172800.0 SECONDS REQUESTED
 *  DUMP=N     - RESTART FILE WRITTEN EVERY 7200.0 SECONDS REQUESTED
 *  RELSCF     - DEFAULT SCF CRITERION MULTIPLIED BY 0.0001
 *              (DEFAULT SCF CRITERION = 0.00010)
 *  GRADIENTS  - ALL GRADIENTS TO BE PRINTED
 *******************************************************************************
PM7 GEO-OK 1SCF GRADIENTS RELSCF=0.0001
 Title: ASE calculation

   ATOM   CHEMICAL          X               Y               Z
  NUMBER   SYMBOL      (ANGSTROMS)     (ANGSTROMS)     (ANGSTROMS)
 
     1       C         -1.16346234  *  -2.22324163  *   0.64937709  *
     2       C          0.14753104  *  -1.58928618  *   0.28260175  *
     3       C          1.19527381  *  -2.45493199  *  -0.22873126  *
     4       C          1.05038367  *  -3.79873536  *  -0.32626606  *
     5       C         -0.21738573  *  -4.48624549  *   0.11420236  *
     6       C         -1.40888505  *  -3.54447868  *  -0.08809390  *
     7       C          0.37719890  *  -0.27392894  *   0.44988408  *
     8       C         -0.63096295  *   0.72698295  *   0.88900339  *
     9       N          2.05715056  *  -4.67345001  *  -0.73070964  *
    10       C          3.25740335  *  -4.17256458  *  -1.42250700  *
    11       C          2.95924405  *  -3.80637040  *  -2.88710063  *
    12       C          4.32509156  *  -5.27570454  *  -1.35762064  *
    13       H         -2.00694978  *  -1.52978751  *   0.45605524  *
    14       H         -1.16384982  *  -2.40137338  *   1.74644121  *
    15       H          2.11497470  *  -1.96149607  *  -0.52455995  *
    16       H         -0.11987645  *  -4.75621187  *   1.18870321  *
    17       H         -0.38643411  *  -5.43884885  *  -0.42068330  *
    18       H         -2.33729325  *  -4.01950711  *   0.27862042  *
    19       H         -1.56263806  *  -3.35290983  *  -1.16712870  *
    20       H          1.36499902  *   0.13978137  *   0.25893237  *
    21       H         -0.61603052  *   0.85358376  *   1.98015403  *
    22       H         -0.44056936  *   1.71147761  *   0.43768079  *
    23       H         -1.65530885  *   0.44968922  *   0.60507474  *
    24       H          1.76969541  *  -5.59837751  *  -1.01971734  *
    25       H          3.62722128  *  -3.26504693  *  -0.87381157  *
    26       H          3.84984240  *  -3.40376239  *  -3.38007176  *
    27       H          2.62965714  *  -4.67760794  *  -3.46170820  *
    28       H          2.16720145  *  -3.05092732  *  -2.95302978  *
    29       H          5.26915627  *  -4.93370799  *  -1.79308246  *
    30       H          4.52251622  *  -5.56686921  *  -0.31745409  *
    31       H          4.01570312  *  -6.17555299  *  -1.89886534  *
    32       C          0.35831810  *   2.31947327  *  -3.02866738  *
    33       C          1.00117684  *   0.92664559  *  -3.25279563  *
    34       C         -0.07768218  *  -0.04890703  *  -2.82658101  *
    35       C         -1.23263799  *   0.55640667  *  -2.51442657  *
    36       C         -1.08852196  *   2.02570028  *  -2.64601943  *
    37       O         -1.94303258  *   2.85589713  *  -2.49541838  *
    38       C          2.29227706  *   0.70762102  *  -2.47209658  *
    39       H          0.40149344  *   2.94636430  *  -3.93187812  *
    40       H          0.85387903  *   2.89648137  *  -2.22913511  *
    41       H          1.21023269  *   0.78153981  *  -4.34125356  *
    42       H          0.13954861  *  -1.10429657  *  -2.79887722  *
    43       H         -2.15751121  *   0.11546211  *  -2.19189228  *
    44       H          2.19753717  *   1.00867707  *  -1.42144842  *
    45       H          3.12431249  *   1.27519782  *  -2.90370074  *
    46       H          2.57655417  *  -0.35249760  *  -2.47134375  *
 


          CARTESIAN COORDINATES 

    NO.       ATOM           X           Y           Z

     1         C         -1.1635     -2.2232      0.6494
     2         C          0.1475     -1.5893      0.2826
     3         C          1.1953     -2.4549     -0.2287
     4         C          1.0504     -3.7987     -0.3263
     5         C         -0.2174     -4.4862      0.1142
     6         C         -1.4089     -3.5445     -0.0881
     7         C          0.3772     -0.2739      0.4499
     8         C         -0.6310      0.7270      0.8890
     9         N          2.0572     -4.6735     -0.7307
    10         C          3.2574     -4.1726     -1.4225
    11         C          2.9592     -3.8064     -2.8871
    12         C          4.3251     -5.2757     -1.3576
    13         H         -2.0069     -1.5298      0.4561
    14         H         -1.1638     -2.4014      1.7464
    15         H          2.1150     -1.9615     -0.5246
    16         H         -0.1199     -4.7562      1.1887
    17         H         -0.3864     -5.4388     -0.4207
    18         H         -2.3373     -4.0195      0.2786
    19         H         -1.5626     -3.3529     -1.1671
    20         H          1.3650      0.1398      0.2589
    21         H         -0.6160      0.8536      1.9802
    22         H         -0.4406      1.7115      0.4377
    23         H         -1.6553      0.4497      0.6051
    24         H          1.7697     -5.5984     -1.0197
    25         H          3.6272     -3.2650     -0.8738
    26         H          3.8498     -3.4038     -3.3801
    27         H          2.6297     -4.6776     -3.4617
    28         H          2.1672     -3.0509     -2.9530
    29         H          5.2692     -4.9337     -1.7931
    30         H          4.5225     -5.5669     -0.3175
    31         H          4.0157     -6.1756     -1.8989
    32         C          0.3583      2.3195     -3.0287
    33         C          1.0012      0.9266     -3.2528
    34         C         -0.0777     -0.0489     -2.8266
    35         C         -1.2326      0.5564     -2.5144
    36         C         -1.0885      2.0257     -2.6460
    37         O         -1.9430      2.8559     -2.4954
    38         C          2.2923      0.7076     -2.4721
    39         H          0.4015      2.9464     -3.9319
    40         H          0.8539      2.8965     -2.2291
    41         H          1.2102      0.7815     -4.3413
    42         H          0.1395     -1.1043     -2.7989
    43         H         -2.1575      0.1155     -2.1919
    44         H          2.1975      1.0087     -1.4214
    45         H          3.1243      1.2752     -2.9037
    46         H          2.5766     -0.3525     -2.4713

 General Reference for PM7:
 "Optimization of Parameters for Semiempirical Methods VI: More Modifications to the 
 NDDO Approximations and Re-optimization of Parameters", J. J. P. Stewart, J. Mol. Mod., 1:32, 19 (2013)
 https://link.springer.com/article/10.1007/s00894-012-1667-x

           Empirical Formula: C17 H27 N O  =    46 atoms



      MOLECULAR POINT GROUP   :   C1  


      RHF CALCULATION, NO. OF DOUBLY OCCUPIED LEVELS = 53

  SCF CRITERION =    0.1000E-07

 -------------------------------------------------------------------------------
 PM7 GEO-OK 1SCF GRADIENTS RELSCF=0.0001
 Title: ASE calculation



     1SCF WAS SPECIFIED, SO BFGS WAS NOT USED                 
     SCF FIELD WAS ACHIEVED                                   


                              PM7 CALCULATION
                                                       MOPAC2016 (Version: 21.051W)
                                                       Mon May  3 23:53:20 2021
                                                       No. of days remaining = 293




          FINAL HEAT OF FORMATION =        -46.99553 KCAL/MOL =    -196.62928 KJ/MOL


          TOTAL ENERGY            =      -2934.29407 EV
          ELECTRONIC ENERGY       =     -22786.58013 EV  POINT GROUP:     C1  
          CORE-CORE REPULSION     =      19852.28606 EV
          COSMO AREA              =        310.48 SQUARE ANGSTROMS
          COSMO VOLUME            =        378.73 CUBIC ANGSTROMS

          GRADIENT NORM           =          3.82611 = 0.56413 PER ATOM
          IONIZATION POTENTIAL    =          7.791774 EV
          HOMO LUMO ENERGIES (EV) =         -7.792  0.103
          NO. OF FILLED LEVELS    =         53
          MOLECULAR WEIGHT        =        261.4064

          MOLECULAR DIMENSIONS (Angstroms)

            Atom       Atom       Distance
            O    37    H    30    10.83927
            H    45    H    18     8.10879
            H    21    H    27     6.44713


          SCF CALCULATIONS        =          1
 
          WALL-CLOCK TIME         =          0.086 SECONDS
          COMPUTATION TIME        =          0.328 SECONDS

          LARGEST ATOMIC GRADIENTS

          Atom     Label                     Cartesian Gradients           Cartesian Coordinates       |Gradient|
                                           X          Y          Z        X          Y          Z

            40       H                  -0.204      0.994      0.752    0.85388    2.89648   -2.22914      1.263
            37       O                  -0.940      0.634     -0.518   -1.94303    2.85590   -2.49542      1.246
            39       H                  -0.529     -1.001     -0.085    0.40149    2.94636   -3.93188      1.135
            44       H                   1.028     -0.436     -0.189    2.19754    1.00868   -1.42145      1.132
             7       C                  -0.406     -0.567      0.494    0.37720   -0.27393    0.44988      0.855
            46       H                  -0.767     -0.043      0.244    2.57655   -0.35250   -2.47134      0.806
            22       H                  -0.040     -0.071     -0.789   -0.44057    1.71148    0.43768      0.794
            14       H                   0.603     -0.319     -0.236   -1.16385   -2.40137    1.74644      0.721
            32       C                   0.041      0.307      0.624    0.35832    2.31947   -3.02867      0.696
            33       C                   0.449      0.521      0.079    1.00118    0.92665   -3.25280      0.692



       FINAL  POINT  AND  DERIVATIVES

   PARAMETER     ATOM    TYPE            VALUE        GRADIENT
      1          1  C    CARTESIAN X    -1.163462      0.118268  KCAL/ANGSTROM
      2          1  C    CARTESIAN Y    -2.223242      0.082744  KCAL/ANGSTROM
      3          1  C    CARTESIAN Z     0.649377     -0.197482  KCAL/ANGSTROM
      4          2  C    CARTESIAN X     0.147531     -0.101219  KCAL/ANGSTROM
      5          2  C    CARTESIAN Y    -1.589286      0.285066  KCAL/ANGSTROM
      6          2  C    CARTESIAN Z     0.282602     -0.492032  KCAL/ANGSTROM
      7          3  C    CARTESIAN X     1.195274      0.144286  KCAL/ANGSTROM
      8          3  C    CARTESIAN Y    -2.454932      0.304532  KCAL/ANGSTROM
      9          3  C    CARTESIAN Z    -0.228731      0.066311  KCAL/ANGSTROM
     10          4  C    CARTESIAN X     1.050384     -0.035641  KCAL/ANGSTROM
     11          4  C    CARTESIAN Y    -3.798735     -0.156987  KCAL/ANGSTROM
     12          4  C    CARTESIAN Z    -0.326266     -0.058319  KCAL/ANGSTROM
     13          5  C    CARTESIAN X    -0.217386      0.085713  KCAL/ANGSTROM
     14          5  C    CARTESIAN Y    -4.486245      0.027974  KCAL/ANGSTROM
     15          5  C    CARTESIAN Z     0.114202      0.017213  KCAL/ANGSTROM
     16          6  C    CARTESIAN X    -1.408885      0.037658  KCAL/ANGSTROM
     17          6  C    CARTESIAN Y    -3.544479      0.018943  KCAL/ANGSTROM
     18          6  C    CARTESIAN Z    -0.088094      0.083354  KCAL/ANGSTROM
     19          7  C    CARTESIAN X     0.377199     -0.406070  KCAL/ANGSTROM
     20          7  C    CARTESIAN Y    -0.273929     -0.566754  KCAL/ANGSTROM
     21          7  C    CARTESIAN Z     0.449884      0.494250  KCAL/ANGSTROM
     22          8  C    CARTESIAN X    -0.630963     -0.146392  KCAL/ANGSTROM
     23          8  C    CARTESIAN Y     0.726983      0.261268  KCAL/ANGSTROM
     24          8  C    CARTESIAN Z     0.889003     -0.168471  KCAL/ANGSTROM
     25          9  N    CARTESIAN X     2.057151     -0.124214  KCAL/ANGSTROM
     26          9  N    CARTESIAN Y    -4.673450      0.260501  KCAL/ANGSTROM
     27          9  N    CARTESIAN Z    -0.730710     -0.022208  KCAL/ANGSTROM
     28         10  C    CARTESIAN X     3.257403     -0.055297  KCAL/ANGSTROM
     29         10  C    CARTESIAN Y    -4.172565      0.190064  KCAL/ANGSTROM
     30         10  C    CARTESIAN Z    -1.422507      0.042974  KCAL/ANGSTROM
     31         11  C    CARTESIAN X     2.959244      0.124900  KCAL/ANGSTROM
     32         11  C    CARTESIAN Y    -3.806370     -0.063060  KCAL/ANGSTROM
     33         11  C    CARTESIAN Z    -2.887101     -0.057843  KCAL/ANGSTROM
     34         12  C    CARTESIAN X     4.325092     -0.192104  KCAL/ANGSTROM
     35         12  C    CARTESIAN Y    -5.275705      0.077957  KCAL/ANGSTROM
     36         12  C    CARTESIAN Z    -1.357621      0.039343  KCAL/ANGSTROM
     37         13  H    CARTESIAN X    -2.006950     -0.050083  KCAL/ANGSTROM
     38         13  H    CARTESIAN Y    -1.529788     -0.063188  KCAL/ANGSTROM
     39         13  H    CARTESIAN Z     0.456055      0.149148  KCAL/ANGSTROM
     40         14  H    CARTESIAN X    -1.163850      0.602715  KCAL/ANGSTROM
     41         14  H    CARTESIAN Y    -2.401373     -0.318532  KCAL/ANGSTROM
     42         14  H    CARTESIAN Z     1.746441     -0.236209  KCAL/ANGSTROM
     43         15  H    CARTESIAN X     2.114975      0.254003  KCAL/ANGSTROM
     44         15  H    CARTESIAN Y    -1.961496     -0.006414  KCAL/ANGSTROM
     45         15  H    CARTESIAN Z    -0.524560      0.179386  KCAL/ANGSTROM
     46         16  H    CARTESIAN X    -0.119876      0.147610  KCAL/ANGSTROM
     47         16  H    CARTESIAN Y    -4.756212      0.032337  KCAL/ANGSTROM
     48         16  H    CARTESIAN Z     1.188703      0.053483  KCAL/ANGSTROM
     49         17  H    CARTESIAN X    -0.386434      0.140547  KCAL/ANGSTROM
     50         17  H    CARTESIAN Y    -5.438849     -0.151357  KCAL/ANGSTROM
     51         17  H    CARTESIAN Z    -0.420683      0.176384  KCAL/ANGSTROM
     52         18  H    CARTESIAN X    -2.337293      0.040484  KCAL/ANGSTROM
     53         18  H    CARTESIAN Y    -4.019507     -0.159876  KCAL/ANGSTROM
     54         18  H    CARTESIAN Z     0.278620      0.319659  KCAL/ANGSTROM
     55         19  H    CARTESIAN X    -1.562638     -0.246243  KCAL/ANGSTROM
     56         19  H    CARTESIAN Y    -3.352910     -0.189866  KCAL/ANGSTROM
     57         19  H    CARTESIAN Z    -1.167129      0.016089  KCAL/ANGSTROM
     58         20  H    CARTESIAN X     1.364999      0.081355  KCAL/ANGSTROM
     59         20  H    CARTESIAN Y     0.139781     -0.363076  KCAL/ANGSTROM
     60         20  H    CARTESIAN Z     0.258932      0.475238  KCAL/ANGSTROM
     61         21  H    CARTESIAN X    -0.616031     -0.040981  KCAL/ANGSTROM
     62         21  H    CARTESIAN Y     0.853584     -0.131298  KCAL/ANGSTROM
     63         21  H    CARTESIAN Z     1.980154     -0.485015  KCAL/ANGSTROM
     64         22  H    CARTESIAN X    -0.440569     -0.039983  KCAL/ANGSTROM
     65         22  H    CARTESIAN Y     1.711478     -0.071233  KCAL/ANGSTROM
     66         22  H    CARTESIAN Z     0.437681     -0.789313  KCAL/ANGSTROM
     67         23  H    CARTESIAN X    -1.655309      0.389118  KCAL/ANGSTROM
     68         23  H    CARTESIAN Y     0.449689     -0.098694  KCAL/ANGSTROM
     69         23  H    CARTESIAN Z     0.605075     -0.160775  KCAL/ANGSTROM
     70         24  H    CARTESIAN X     1.769695      0.020202  KCAL/ANGSTROM
     71         24  H    CARTESIAN Y    -5.598378      0.035120  KCAL/ANGSTROM
     72         24  H    CARTESIAN Z    -1.019717     -0.010071  KCAL/ANGSTROM
     73         25  H    CARTESIAN X     3.627221     -0.035549  KCAL/ANGSTROM
     74         25  H    CARTESIAN Y    -3.265047      0.233836  KCAL/ANGSTROM
     75         25  H    CARTESIAN Z    -0.873812     -0.055362  KCAL/ANGSTROM
     76         26  H    CARTESIAN X     3.849842      0.272117  KCAL/ANGSTROM
     77         26  H    CARTESIAN Y    -3.403762     -0.199303  KCAL/ANGSTROM
     78         26  H    CARTESIAN Z    -3.380072     -0.010202  KCAL/ANGSTROM
     79         27  H    CARTESIAN X     2.629657      0.120964  KCAL/ANGSTROM
     80         27  H    CARTESIAN Y    -4.677608     -0.243210  KCAL/ANGSTROM
     81         27  H    CARTESIAN Z    -3.461708      0.163590  KCAL/ANGSTROM
     82         28  H    CARTESIAN X     2.167201      0.019747  KCAL/ANGSTROM
     83         28  H    CARTESIAN Y    -3.050927     -0.203254  KCAL/ANGSTROM
     84         28  H    CARTESIAN Z    -2.953030     -0.370645  KCAL/ANGSTROM
     85         29  H    CARTESIAN X     5.269156     -0.129779  KCAL/ANGSTROM
     86         29  H    CARTESIAN Y    -4.933708     -0.078105  KCAL/ANGSTROM
     87         29  H    CARTESIAN Z    -1.793082     -0.003126  KCAL/ANGSTROM
     88         30  H    CARTESIAN X     4.522516     -0.254107  KCAL/ANGSTROM
     89         30  H    CARTESIAN Y    -5.566869      0.038995  KCAL/ANGSTROM
     90         30  H    CARTESIAN Z    -0.317454      0.034405  KCAL/ANGSTROM
     91         31  H    CARTESIAN X     4.015703     -0.582723  KCAL/ANGSTROM
     92         31  H    CARTESIAN Y    -6.175553      0.189550  KCAL/ANGSTROM
     93         31  H    CARTESIAN Z    -1.898865      0.029109  KCAL/ANGSTROM
     94         32  C    CARTESIAN X     0.358318      0.040987  KCAL/ANGSTROM
     95         32  C    CARTESIAN Y     2.319473      0.306869  KCAL/ANGSTROM
     96         32  C    CARTESIAN Z    -3.028667      0.623619  KCAL/ANGSTROM
     97         33  C    CARTESIAN X     1.001177      0.448509  KCAL/ANGSTROM
     98         33  C    CARTESIAN Y     0.926646      0.521200  KCAL/ANGSTROM
     99         33  C    CARTESIAN Z    -3.252796      0.078665  KCAL/ANGSTROM
    100         34  C    CARTESIAN X    -0.077682      0.453376  KCAL/ANGSTROM
    101         34  C    CARTESIAN Y    -0.048907      0.298605  KCAL/ANGSTROM
    102         34  C    CARTESIAN Z    -2.826581     -0.153931  KCAL/ANGSTROM
    103         35  C    CARTESIAN X    -1.232638     -0.419696  KCAL/ANGSTROM
    104         35  C    CARTESIAN Y     0.556407      0.381121  KCAL/ANGSTROM
    105         35  C    CARTESIAN Z    -2.514427      0.257842  KCAL/ANGSTROM
    106         36  C    CARTESIAN X    -1.088522     -0.300515  KCAL/ANGSTROM
    107         36  C    CARTESIAN Y     2.025700      0.128387  KCAL/ANGSTROM
    108         36  C    CARTESIAN Z    -2.646019      0.093092  KCAL/ANGSTROM
    109         37  O    CARTESIAN X    -1.943033     -0.939975  KCAL/ANGSTROM
    110         37  O    CARTESIAN Y     2.855897      0.633527  KCAL/ANGSTROM
    111         37  O    CARTESIAN Z    -2.495418     -0.518468  KCAL/ANGSTROM
    112         38  C    CARTESIAN X     2.292277      0.241816  KCAL/ANGSTROM
    113         38  C    CARTESIAN Y     0.707621     -0.253327  KCAL/ANGSTROM
    114         38  C    CARTESIAN Z    -2.472097      0.152890  KCAL/ANGSTROM
    115         39  H    CARTESIAN X     0.401493     -0.528810  KCAL/ANGSTROM
    116         39  H    CARTESIAN Y     2.946364     -1.000773  KCAL/ANGSTROM
    117         39  H    CARTESIAN Z    -3.931878     -0.085345  KCAL/ANGSTROM
    118         40  H    CARTESIAN X     0.853879     -0.203888  KCAL/ANGSTROM
    119         40  H    CARTESIAN Y     2.896481      0.994020  KCAL/ANGSTROM
    120         40  H    CARTESIAN Z    -2.229135      0.752409  KCAL/ANGSTROM
    121         41  H    CARTESIAN X     1.210233      0.542884  KCAL/ANGSTROM
    122         41  H    CARTESIAN Y     0.781540     -0.131483  KCAL/ANGSTROM
    123         41  H    CARTESIAN Z    -4.341254     -0.030655  KCAL/ANGSTROM
    124         42  H    CARTESIAN X     0.139549      0.255567  KCAL/ANGSTROM
    125         42  H    CARTESIAN Y    -1.104297      0.306892  KCAL/ANGSTROM
    126         42  H    CARTESIAN Z    -2.798877     -0.433106  KCAL/ANGSTROM
    127         43  H    CARTESIAN X    -2.157511     -0.437680  KCAL/ANGSTROM
    128         43  H    CARTESIAN Y     0.115462     -0.365863  KCAL/ANGSTROM
    129         43  H    CARTESIAN Z    -2.191892      0.261333  KCAL/ANGSTROM
    130         44  H    CARTESIAN X     2.197537      1.027624  KCAL/ANGSTROM
    131         44  H    CARTESIAN Y     1.008677     -0.435686  KCAL/ANGSTROM
    132         44  H    CARTESIAN Z    -1.421448     -0.189319  KCAL/ANGSTROM
    133         45  H    CARTESIAN X     3.124312      0.427315  KCAL/ANGSTROM
    134         45  H    CARTESIAN Y     1.275198     -0.315577  KCAL/ANGSTROM
    135         45  H    CARTESIAN Z    -2.903701     -0.276119  KCAL/ANGSTROM
    136         46  H    CARTESIAN X     2.576554     -0.766820  KCAL/ANGSTROM
    137         46  H    CARTESIAN Y    -0.352498     -0.042596  KCAL/ANGSTROM
    138         46  H    CARTESIAN Z    -2.471344      0.244235  KCAL/ANGSTROM




   ATOM   CHEMICAL          X               Y               Z
  NUMBER   SYMBOL      (ANGSTROMS)     (ANGSTROMS)     (ANGSTROMS)
 
     1       C         -1.16346234  *  -2.22324163  *   0.64937709  *
     2       C          0.14753104  *  -1.58928618  *   0.28260175  *
     3       C          1.19527381  *  -2.45493199  *  -0.22873126  *
     4       C          1.05038367  *  -3.79873536  *  -0.32626606  *
     5       C         -0.21738573  *  -4.48624549  *   0.11420236  *
     6       C         -1.40888505  *  -3.54447868  *  -0.08809390  *
     7       C          0.37719890  *  -0.27392894  *   0.44988408  *
     8       C         -0.63096295  *   0.72698295  *   0.88900339  *
     9       N          2.05715056  *  -4.67345001  *  -0.73070964  *
    10       C          3.25740335  *  -4.17256458  *  -1.42250700  *
    11       C          2.95924405  *  -3.80637040  *  -2.88710063  *
    12       C          4.32509156  *  -5.27570454  *  -1.35762064  *
    13       H         -2.00694978  *  -1.52978751  *   0.45605524  *
    14       H         -1.16384982  *  -2.40137338  *   1.74644121  *
    15       H          2.11497470  *  -1.96149607  *  -0.52455995  *
    16       H         -0.11987645  *  -4.75621187  *   1.18870321  *
    17       H         -0.38643411  *  -5.43884885  *  -0.42068330  *
    18       H         -2.33729325  *  -4.01950711  *   0.27862042  *
    19       H         -1.56263806  *  -3.35290983  *  -1.16712870  *
    20       H          1.36499902  *   0.13978137  *   0.25893237  *
    21       H         -0.61603052  *   0.85358376  *   1.98015403  *
    22       H         -0.44056936  *   1.71147761  *   0.43768079  *
    23       H         -1.65530885  *   0.44968922  *   0.60507474  *
    24       H          1.76969541  *  -5.59837751  *  -1.01971734  *
    25       H          3.62722128  *  -3.26504693  *  -0.87381157  *
    26       H          3.84984240  *  -3.40376239  *  -3.38007176  *
    27       H          2.62965714  *  -4.67760794  *  -3.46170820  *
    28       H          2.16720145  *  -3.05092732  *  -2.95302978  *
    29       H          5.26915627  *  -4.93370799  *  -1.79308246  *
    30       H          4.52251622  *  -5.56686921  *  -0.31745409  *
    31       H          4.01570312  *  -6.17555299  *  -1.89886534  *
    32       C          0.35831810  *   2.31947327  *  -3.02866738  *
    33       C          1.00117684  *   0.92664559  *  -3.25279563  *
    34       C         -0.07768218  *  -0.04890703  *  -2.82658101  *
    35       C         -1.23263799  *   0.55640667  *  -2.51442657  *
    36       C         -1.08852196  *   2.02570028  *  -2.64601943  *
    37       O         -1.94303258  *   2.85589713  *  -2.49541838  *
    38       C          2.29227706  *   0.70762102  *  -2.47209658  *
    39       H          0.40149344  *   2.94636430  *  -3.93187812  *
    40       H          0.85387903  *   2.89648137  *  -2.22913511  *
    41       H          1.21023269  *   0.78153981  *  -4.34125356  *
    42       H          0.13954861  *  -1.10429657  *  -2.79887722  *
    43       H         -2.15751121  *   0.11546211  *  -2.19189228  *
    44       H          2.19753717  *   1.00867707  *  -1.42144842  *
    45       H          3.12431249  *   1.27519782  *  -2.90370074  *
    46       H          2.57655417  *  -0.35249760  *  -2.47134375  *

                             CARTESIAN COORDINATES

   1    C       -1.163462339    -2.223241629     0.649377088
   2    C        0.147531038    -1.589286185     0.282601747
   3    C        1.195273807    -2.454931994    -0.228731263
   4    C        1.050383671    -3.798735358    -0.326266063
   5    C       -0.217385727    -4.486245489     0.114202355
   6    C       -1.408885047    -3.544478683    -0.088093898
   7    C        0.377198897    -0.273928944     0.449884079
   8    C       -0.630962952     0.726982950     0.889003387
   9    N        2.057150560    -4.673450011    -0.730709645
  10    C        3.257403353    -4.172564584    -1.422507001
  11    C        2.959244046    -3.806370396    -2.887100633
  12    C        4.325091560    -5.275704537    -1.357620643
  13    H       -2.006949775    -1.529787507     0.456055240
  14    H       -1.163849817    -2.401373378     1.746441209
  15    H        2.114974704    -1.961496072    -0.524559949
  16    H       -0.119876446    -4.756211869     1.188703210
  17    H       -0.386434112    -5.438848846    -0.420683300
  18    H       -2.337293250    -4.019507107     0.278620419
  19    H       -1.562638062    -3.352909830    -1.167128703
  20    H        1.364999017     0.139781367     0.258932368
  21    H       -0.616030523     0.853583756     1.980154033
  22    H       -0.440569357     1.711477611     0.437680790
  23    H       -1.655308854     0.449689219     0.605074736
  24    H        1.769695406    -5.598377513    -1.019717341
  25    H        3.627221279    -3.265046927    -0.873811570
  26    H        3.849842401    -3.403762386    -3.380071757
  27    H        2.629657142    -4.677607939    -3.461708200
  28    H        2.167201453    -3.050927324    -2.953029783
  29    H        5.269156269    -4.933707990    -1.793082461
  30    H        4.522516223    -5.566869213    -0.317454094
  31    H        4.015703123    -6.175552988    -1.898865345
  32    C        0.358318098     2.319473268    -3.028667380
  33    C        1.001176837     0.926645586    -3.252795630
  34    C       -0.077682182    -0.048907025    -2.826581006
  35    C       -1.232637992     0.556406668    -2.514426572
  36    C       -1.088521957     2.025700278    -2.646019431
  37    O       -1.943032582     2.855897129    -2.495418384
  38    C        2.292277062     0.707621017    -2.472096580
  39    H        0.401493436     2.946364298    -3.931878123
  40    H        0.853879032     2.896481366    -2.229135112
  41    H        1.210232692     0.781539812    -4.341253561
  42    H        0.139548606    -1.104296575    -2.798877220
  43    H       -2.157511214     0.115462114    -2.191892282
  44    H        2.197537168     1.008677068    -1.421448415
  45    H        3.124312488     1.275197823    -2.903700744
  46    H        2.576554172    -0.352497603    -2.471343750


           Empirical Formula: C17 H27 N O  =    46 atoms



      MOLECULAR POINT GROUP   :   C1  


                  EIGENVALUES  
 -36.41406 -31.18493 -30.14783 -29.92841 -28.11214 -27.23816 -26.28553 -25.62539
 -24.57060 -24.51257 -24.20251 -22.34448 -21.93143 -21.38631 -20.00896 -19.37021
 -19.04759 -18.45956 -17.35656 -17.03019 -16.74199 -16.42689 -16.02219 -15.85608
 -15.29194 -14.98689 -14.65576 -14.57348 -14.39001 -14.28612 -14.11960 -14.06964
 -13.74103 -13.64522 -13.55178 -13.40547 -13.31147 -13.21636 -12.80775 -12.57763
 -12.47694 -12.37238 -12.29440 -12.07918 -12.00202 -11.93420 -11.67994 -11.15416
 -10.93084 -10.30455  -9.90550  -9.76390  -7.79177   0.10330   0.69220   1.87925
   2.30415   2.51940   3.20660   3.42527   3.61115   3.73583   3.89469   3.95223
   4.02019   4.18590   4.40852   4.43557   4.52013   4.98329   5.04027   5.23513
   5.28090   5.34825   5.38445   5.45981   5.50265   5.51500   5.54332   5.57166
   5.59281   5.66416   5.70003   5.77354   5.81575   5.87883   5.91759   5.96811
   6.12004   6.17404   6.21995   6.28393   6.39146   6.41675   6.48857   6.57720
   6.62255   6.65150   6.70362   6.74960   6.94664   7.02205   7.32618


              NET ATOMIC CHARGES AND DIPOLE CONTRIBUTIONS

  ATOM NO.   TYPE          CHARGE      No. of ELECS.   s-Pop       p-Pop       
    1          C          -0.276753        4.2768     1.05544     3.22132
    2          C           0.049134        3.9509     1.06412     2.88675
    3          C          -0.390486        4.3905     1.06014     3.33034
    4          C           0.252081        3.7479     1.06982     2.67810
    5          C          -0.306076        4.3061     1.06042     3.24566
    6          C          -0.249032        4.2490     1.05744     3.19159
    7          C          -0.223006        4.2230     1.07747     3.14553
    8          C          -0.428345        4.4283     1.04464     3.38371
    9          N          -0.563327        5.5633     1.57987     3.98346
   10          C           0.130176        3.8698     1.06334     2.80649
   11          C          -0.496260        4.4963     1.06275     3.43351
   12          C          -0.473360        4.4734     1.05973     3.41363
   13          H           0.148593        0.8514     0.85141
   14          H           0.150543        0.8495     0.84946
   15          H           0.155772        0.8442     0.84423
   16          H           0.165127        0.8349     0.83487
   17          H           0.140008        0.8600     0.85999
   18          H           0.134921        0.8651     0.86508
   19          H           0.142502        0.8575     0.85750
   20          H           0.139215        0.8608     0.86079
   21          H           0.150875        0.8491     0.84912
   22          H           0.146466        0.8535     0.85353
   23          H           0.147767        0.8522     0.85223
   24          H           0.289903        0.7101     0.71010
   25          H           0.146658        0.8533     0.85334
   26          H           0.152530        0.8475     0.84747
   27          H           0.148739        0.8513     0.85126
   28          H           0.157181        0.8428     0.84282
   29          H           0.151957        0.8480     0.84804
   30          H           0.161122        0.8389     0.83888
   31          H           0.146201        0.8538     0.85380
   32          C          -0.403088        4.4031     1.07974     3.32335
   33          C          -0.093222        4.0932     1.06078     3.03244
   34          C          -0.051707        4.0517     1.11532     2.93638
   35          C          -0.311051        4.3111     1.10227     3.20878
   36          C           0.487488        3.5125     1.12070     2.39181
   37          O          -0.456520        6.4565     1.87541     4.58111
   38          C          -0.444716        4.4447     1.05362     3.39110
   39          H           0.166657        0.8333     0.83334
   40          H           0.174899        0.8251     0.82510
   41          H           0.146764        0.8532     0.85324
   42          H           0.156414        0.8436     0.84359
   43          H           0.174834        0.8252     0.82517
   44          H           0.157205        0.8428     0.84279
   45          H           0.146044        0.8540     0.85396
   46          H           0.149172        0.8508     0.85083
 DIPOLE           X         Y         Z       TOTAL
 POINT-CHG.     3.381    -4.290    -1.168     5.586
 HYBRID        -0.212    -0.424    -0.407     0.625
 SUM            3.169    -4.714    -1.575     5.895


          ATOMIC ORBITAL ELECTRON POPULATIONS

     Atom    s        px        py        pz   
    1  C   1.05544   1.06637   1.03753   1.11742
    2  C   1.06412   0.95174   0.96723   0.96778
    3  C   1.06014   1.10440   0.99635   1.22960
    4  C   1.06982   0.85044   0.92538   0.90227
    5  C   1.06042   1.00846   1.07537   1.16183
    6  C   1.05744   1.04419   1.01469   1.13271
    7  C   1.07747   1.06585   0.99193   1.08775
    8  C   1.04464   1.11592   1.11237   1.15542
    9  N   1.57987   1.20969   1.17932   1.59445
   10  C   1.06334   0.85014   1.02354   0.93281
   11  C   1.06275   1.17887   1.17971   1.07493
   12  C   1.05973   1.11216   1.11352   1.18795
   13  H   0.85141
   14  H   0.84946
   15  H   0.84423
   16  H   0.83487
   17  H   0.85999
   18  H   0.86508
   19  H   0.85750
   20  H   0.86079
   21  H   0.84912
   22  H   0.85353
   23  H   0.85223
   24  H   0.71010
   25  H   0.85334
   26  H   0.84747
   27  H   0.85126
   28  H   0.84282
   29  H   0.84804
   30  H   0.83888
   31  H   0.85380
   32  C   1.07974   1.07735   1.06710   1.17890
   33  C   1.06078   0.97839   0.96446   1.08959
   34  C   1.11532   0.97823   1.06687   0.89129
   35  C   1.10227   1.07769   1.04150   1.08958
   36  C   1.12070   0.84714   0.87189   0.67277
   37  O   1.87541   1.54674   1.59209   1.44229
   38  C   1.05362   1.06661   1.17532   1.14917
   39  H   0.83334
   40  H   0.82510
   41  H   0.85324
   42  H   0.84359
   43  H   0.82517
   44  H   0.84279
   45  H   0.85396
   46  H   0.85083

 **********************
 *                    *
 * JOB ENDED NORMALLY *
 *                    *
 **********************



 TOTAL JOB TIME:             0.10 SECONDS

 == MOPAC DONE ==
