 *******************************************************************************
 ** Site#: 36969        For non-commercial use only    Version 21.051W 64BITS **
 *******************************************************************************
 ** Cite this program as: MOPAC2016, Version: 21.051W, James J. P. Stewart,   **
 ** Stewart Computational Chemistry, web: HTTP://OpenMOPAC.net. Days left: 293**
 *******************************************************************************
 **                                                                           **
 **                                MOPAC2016                                  **
 **                                                                           **
 *******************************************************************************

                              PM7 CALCULATION RESULTS

 *******************************************************************************
 *  CALCULATION DONE:                                Mon May  3 23:53:32 2021  *
 *  PM7        - The PM7 Hamiltonian to be used
 *  LET        - OVERRIDE SOME SAFETY CHECKS
 *  FORCE      - FORCE CALCULATION SPECIFIED
 *  T=         - A TIME OF 172800.0 SECONDS REQUESTED
 *  DUMP=N     - RESTART FILE WRITTEN EVERY 7200.0 SECONDS REQUESTED
 *******************************************************************************
PM7 FORCE LET
 TS_FREQ

   ATOM   CHEMICAL          X               Y               Z
  NUMBER   SYMBOL      (ANGSTROMS)     (ANGSTROMS)     (ANGSTROMS)
 
     1       C         -0.97403200  *  -1.90601200  *  -0.07657900  *
     2       C          0.39559500  *  -1.54813600  *  -0.53823100  *
     3       C          1.29456800  *  -2.56982200  *  -0.92270500  *
     4       C          0.98291600  *  -3.90883200  *  -0.81165300  *
     5       C         -0.33284000  *  -4.34329300  *  -0.21814400  *
     6       C         -1.41056000  *  -3.29992600  *  -0.53240200  *
     7       C          0.75733200  *  -0.18748500  *  -0.66994600  *
     8       C          0.01736800  *   0.81437500  *   0.18685900  *
     9       N          1.83205000  *  -4.91513200  *  -1.15769000  *
    10       C          3.12937100  *  -4.67488000  *  -1.82440200  *
    11       C          2.91116900  *  -4.45380600  *  -3.32675800  *
    12       C          4.03864600  *  -5.88267900  *  -1.57066200  *
    13       H         -1.70372900  *  -1.14456100  *  -0.47810800  *
    14       H         -1.03761700  *  -1.80487000  *   1.02709800  *
    15       H          2.25956600  *  -2.25979000  *  -1.31502100  *
    16       H         -0.21401900  *  -4.44985700  *   0.88323800  *
    17       H         -0.65418200  *  -5.33784100  *  -0.58387000  *
    18       H         -2.36745600  *  -3.57836100  *  -0.05128200  *
    19       H         -1.61406800  *  -3.28390800  *  -1.62436800  *
    20       H          1.83968200  *   0.02034500  *  -0.70917000  *
    21       H          0.07500500  *   0.55390300  *   1.24943800  *
    22       H          0.42596300  *   1.82629600  *   0.07238200  *
    23       H         -1.04776500  *   0.88383200  *  -0.09114000  *
    24       H          1.52529600  *  -5.87547400  *  -1.12113700  *
    25       H          3.59887400  *  -3.75886800  *  -1.36943400  *
    26       H          3.85533700  *  -4.22380600  *  -3.83313100  *
    27       H          2.48278900  *  -5.33616900  *  -3.81435100  *
    28       H          2.22502600  *  -3.61464000  *  -3.51193500  *
    29       H          5.03378200  *  -5.71394900  *  -2.00237600  *
    30       H          4.17932700  *  -6.06408500  *  -0.49743600  *
    31       H          3.64725500  *  -6.80261000  *  -2.01868400  *
    32       C         -0.38954800  *   2.41486600  *  -2.68878600  *
    33       C          0.83627800  *   1.49298000  *  -2.85160000  *
    34       C          0.33498100  *   0.09253400  *  -2.39796300  *
    35       C         -1.07153400  *   0.10801100  *  -2.52826000  *
    36       C         -1.57962800  *   1.43770100  *  -2.61620000  *
    37       O         -2.72845700  *   1.82573900  *  -2.63896200  *
    38       C          2.09571700  *   2.03819600  *  -2.19482700  *
    39       H         -0.51160800  *   3.11085300  *  -3.52902200  *
    40       H         -0.34865200  *   3.02582600  *  -1.77740600  *
    41       H          1.04516600  *   1.38145400  *  -3.94877400  *
    42       H          0.91371400  *  -0.72953000  *  -2.83870200  *
    43       H         -1.70084200  *  -0.74632700  *  -2.57605600  *
    44       H          1.94322900  *   2.27421400  *  -1.13575300  *
    45       H          2.41258800  *   2.96827000  *  -2.68399900  *
    46       H          2.92655800  *   1.32887600  *  -2.26559500  *
 


          CARTESIAN COORDINATES 

    NO.       ATOM           X           Y           Z

     1         C         -0.9740     -1.9060     -0.0766
     2         C          0.3956     -1.5481     -0.5382
     3         C          1.2946     -2.5698     -0.9227
     4         C          0.9829     -3.9088     -0.8117
     5         C         -0.3328     -4.3433     -0.2181
     6         C         -1.4106     -3.2999     -0.5324
     7         C          0.7573     -0.1875     -0.6699
     8         C          0.0174      0.8144      0.1869
     9         N          1.8321     -4.9151     -1.1577
    10         C          3.1294     -4.6749     -1.8244
    11         C          2.9112     -4.4538     -3.3268
    12         C          4.0386     -5.8827     -1.5707
    13         H         -1.7037     -1.1446     -0.4781
    14         H         -1.0376     -1.8049      1.0271
    15         H          2.2596     -2.2598     -1.3150
    16         H         -0.2140     -4.4499      0.8832
    17         H         -0.6542     -5.3378     -0.5839
    18         H         -2.3675     -3.5784     -0.0513
    19         H         -1.6141     -3.2839     -1.6244
    20         H          1.8397      0.0203     -0.7092
    21         H          0.0750      0.5539      1.2494
    22         H          0.4260      1.8263      0.0724
    23         H         -1.0478      0.8838     -0.0911
    24         H          1.5253     -5.8755     -1.1211
    25         H          3.5989     -3.7589     -1.3694
    26         H          3.8553     -4.2238     -3.8331
    27         H          2.4828     -5.3362     -3.8144
    28         H          2.2250     -3.6146     -3.5119
    29         H          5.0338     -5.7139     -2.0024
    30         H          4.1793     -6.0641     -0.4974
    31         H          3.6473     -6.8026     -2.0187
    32         C         -0.3895      2.4149     -2.6888
    33         C          0.8363      1.4930     -2.8516
    34         C          0.3350      0.0925     -2.3980
    35         C         -1.0715      0.1080     -2.5283
    36         C         -1.5796      1.4377     -2.6162
    37         O         -2.7285      1.8257     -2.6390
    38         C          2.0957      2.0382     -2.1948
    39         H         -0.5116      3.1109     -3.5290
    40         H         -0.3487      3.0258     -1.7774
    41         H          1.0452      1.3815     -3.9488
    42         H          0.9137     -0.7295     -2.8387
    43         H         -1.7008     -0.7463     -2.5761
    44         H          1.9432      2.2742     -1.1358
    45         H          2.4126      2.9683     -2.6840
    46         H          2.9266      1.3289     -2.2656

 General Reference for PM7:
 "Optimization of Parameters for Semiempirical Methods VI: More Modifications to the 
 NDDO Approximations and Re-optimization of Parameters", J. J. P. Stewart, J. Mol. Mod., 1:32, 19 (2013)
 https://link.springer.com/article/10.1007/s00894-012-1667-x

           Empirical Formula: C17 H27 N O  =    46 atoms



      MOLECULAR POINT GROUP   :   C1  


      RHF CALCULATION, NO. OF DOUBLY OCCUPIED LEVELS = 53



          HEAT OF FORMATION =     -13.615548 KCALS/MOLE


          CARTESIAN COORDINATE DERIVATIVES

   NUMBER  ATOM         X            Y            Z

     1       C     -0.030784    -0.079404    -0.007104
     2       C      0.036914    -0.015583     0.142201
     3       C     -0.041880    -0.045129     0.157752
     4       C      0.043073     0.063193    -0.116396
     5       C     -0.066654     0.005920     0.011534
     6       C     -0.055133    -0.080516    -0.008803
     7       C      2.869959    -1.542991    22.684318
     8       C     -0.082041    -0.105315    -0.092565
     9       N      0.030708     0.020258     0.075658
    10       C      0.055763    -0.017686     0.047627
    11       C      0.051764     0.036639     0.100124
    12       C      0.041324     0.027394    -0.032306
    13       H     -0.021425     0.026026     0.048353
    14       H      0.042543     0.064917    -0.049084
    15       H      0.068666     0.058784    -0.165245
    16       H      0.024812     0.083274    -0.058082
    17       H     -0.044650     0.076802     0.149526
    18       H     -0.085457    -0.046012     0.028993
    19       H      0.001767    -0.060661     0.039452
    20       H     -0.181917     0.051030    -0.054855
    21       H      0.013903    -0.038590    -0.179037
    22       H      0.056488    -0.021827    -0.063501
    23       H     -0.019332     0.202455     0.036277
    24       H      0.081797     0.057262     0.119415
    25       H      0.012816    -0.099236    -0.039884
    26       H     -0.029292    -0.005536     0.002509
    27       H     -0.054492     0.096587    -0.018993
    28       H     -0.042461     0.007724     0.015887
    29       H      0.038218    -0.046585    -0.043473
    30       H      0.000128    -0.066927    -0.081829
    31       H      0.002883    -0.013788    -0.037380
    32       C      0.038626    -0.011217    -0.058934
    33       C     -0.086777     0.153044    -0.038841
    34       C     -2.729065     1.583990   -22.859289
    35       C      0.089064    -0.015302     0.058458
    36       C      0.066206    -0.039536    -0.022837
    37       O      0.044861     0.076324     0.159945
    38       C      0.025000     0.019368     0.088800
    39       H     -0.033697     0.001781     0.145967
    40       H      0.118238    -0.040254    -0.164326
    41       H     -0.003317     0.239795     0.042691
    42       H     -0.082440    -0.325396    -0.031903
    43       H     -0.010064    -0.204972    -0.198729
    44       H     -0.101731     0.036664     0.201983
    45       H      0.017679    -0.077228     0.107096
    46       H     -0.070591     0.010457    -0.041168
 


          GRADIENT NORM =  32.53673



 ** GRADIENT IS VERY LARGE, BUT SINCE "LET" IS USED, CALCULATION WILL CONTINUE


          TIME FOR SCF CALCULATION =    0.03

          TIME FOR DERIVATIVES     =    0.03

          MOLECULAR WEIGHT =  261.41



          ROTATIONAL CONSTANTS IN CM(-1)

          A =    0.02086999   B =    0.00661003   C =    0.00579135



           PRINCIPAL MOMENTS OF INERTIA IN UNITS OF 10**(-40)*GRAM-CM**2

          A =     1341.2928   B =     4234.8962   C =     4833.5514


          ORIENTATION OF MOLECULE IN FORCE CALCULATION

    NO.       ATOM         X         Y         Z

     1          C      -1.9696   -0.0797   -0.9110
     2          C      -0.4807   -0.0797   -0.9110
     3          C       0.2199    1.1488   -0.9110
     4          C      -0.4230    2.3662   -0.9934
     5          C      -1.9218    2.4336   -1.1401
     6          C      -2.5649    1.2423   -0.4218
     7          C       0.2199   -1.3049   -0.8246
     8          C      -0.4856   -2.5455   -1.3232
     9          N       0.2234    3.5642   -1.0120
    10          C       1.6812    3.6911   -0.8022
    11          C       1.9995    3.6363    0.6976
    12          C       2.1487    5.0151   -1.4175
    13          H      -2.3333   -0.9139   -0.2437
    14          H      -2.3460   -0.3411   -1.9222
    15          H       1.3037    1.1018   -0.8444
    16          H      -2.1796    2.4115   -2.2225
    17          H      -2.3430    3.3803   -0.7496
    18          H      -3.6612    1.2482   -0.5727
    19          H      -2.4097    1.3333    0.6744
    20          H       1.2776   -1.2766   -1.1355
    21          H      -0.8246   -2.4259   -2.3581
    22          H       0.1690   -3.4256   -1.2899
    23          H      -1.3624   -2.7957   -0.7026
    24          H      -0.3009    4.4260   -1.0028
    25          H       2.1922    2.8390   -1.3308
    26          H       3.0802    3.6781    0.8736
    27          H       1.5445    4.4687    1.2452
    28          H       1.6274    2.7063    1.1516
    29          H       3.2384    5.1166   -1.3324
    30          H       1.9017    5.0738   -2.4852
    31          H       1.7064    5.8862   -0.9217
    32          C       0.4164   -3.7888    1.6157
    33          C       1.3729   -2.6195    1.3044
    34          C       0.4345   -1.4284    0.9591
    35          C      -0.8151   -1.7172    1.5511
    36          C      -0.9356   -3.0986    1.8842
    37          O      -1.8921   -3.7095    2.3120
    38          C       2.4588   -2.9761    0.3002
    39          H       0.7319   -4.3739    2.4894
    40          H       0.3183   -4.4963    0.7818
    41          H       1.8784   -2.3187    2.2603
    42          H       0.9059   -0.4521    1.1309
    43          H      -1.5845   -1.0134    1.7536
    44          H       2.0469   -3.3805   -0.6312
    45          H       3.1254   -3.7448    0.7116
    46          H       3.0745   -2.1071    0.0467


    FIRST DERIVATIVES WILL BE USED IN THE CALCULATION OF SECOND DERIVATIVES

          ESTIMATED TIME TO COMPLETE CALCULATION =       17.25 SECONDS

    FOR POINT-GROUP C1   THERE ARE   1 UNIQUE SYMMETRY FUNCTIONS.

 STEP:   1 TIME =     0.05 SECS, INTEGRAL =      0.05 TIME LEFT: 172799.88
 STEP:   2 TIME =     0.09 SECS, INTEGRAL =      0.14 TIME LEFT: 172799.80
 STEP:   3 TIME =     0.07 SECS, INTEGRAL =      0.21 TIME LEFT: 172799.73
 STEP:   4 TIME =     0.07 SECS, INTEGRAL =      0.28 TIME LEFT: 172799.66
 STEP:   5 TIME =     0.09 SECS, INTEGRAL =      0.38 TIME LEFT: 172799.56
 STEP:   6 TIME =     0.09 SECS, INTEGRAL =      0.47 TIME LEFT: 172799.47
 STEP:   7 TIME =     0.07 SECS, INTEGRAL =      0.54 TIME LEFT: 172799.40
 STEP:   8 TIME =     0.13 SECS, INTEGRAL =      0.67 TIME LEFT: 172799.27
 STEP:   9 TIME =     0.09 SECS, INTEGRAL =      0.76 TIME LEFT: 172799.18
 STEP:  10 TIME =     0.09 SECS, INTEGRAL =      0.84 TIME LEFT: 172799.09
 STEP:  11 TIME =     0.12 SECS, INTEGRAL =      0.97 TIME LEFT: 172798.97
 STEP:  12 TIME =     0.09 SECS, INTEGRAL =      1.06 TIME LEFT: 172798.88
 STEP:  13 TIME =     0.07 SECS, INTEGRAL =      1.13 TIME LEFT: 172798.80
 STEP:  14 TIME =     0.09 SECS, INTEGRAL =      1.23 TIME LEFT: 172798.71
 STEP:  15 TIME =     0.09 SECS, INTEGRAL =      1.31 TIME LEFT: 172798.62
 STEP:  16 TIME =     0.09 SECS, INTEGRAL =      1.40 TIME LEFT: 172798.54
 STEP:  17 TIME =     0.09 SECS, INTEGRAL =      1.48 TIME LEFT: 172798.45
 STEP:  18 TIME =     0.09 SECS, INTEGRAL =      1.57 TIME LEFT: 172798.37
 STEP:  19 TIME =     0.12 SECS, INTEGRAL =      1.69 TIME LEFT: 172798.25
 STEP:  20 TIME =     0.09 SECS, INTEGRAL =      1.78 TIME LEFT: 172798.16
 STEP:  21 TIME =     0.08 SECS, INTEGRAL =      1.86 TIME LEFT: 172798.08
 STEP:  22 TIME =     0.11 SECS, INTEGRAL =      1.97 TIME LEFT: 172797.97
 STEP:  23 TIME =     0.08 SECS, INTEGRAL =      2.05 TIME LEFT: 172797.89
 STEP:  24 TIME =     0.10 SECS, INTEGRAL =      2.15 TIME LEFT: 172797.79
 STEP:  25 TIME =     0.09 SECS, INTEGRAL =      2.23 TIME LEFT: 172797.70
 STEP:  26 TIME =     0.12 SECS, INTEGRAL =      2.35 TIME LEFT: 172797.59
 STEP:  27 TIME =     0.10 SECS, INTEGRAL =      2.45 TIME LEFT: 172797.48
 STEP:  28 TIME =     0.10 SECS, INTEGRAL =      2.55 TIME LEFT: 172797.38
 STEP:  29 TIME =     0.09 SECS, INTEGRAL =      2.65 TIME LEFT: 172797.29
 STEP:  30 TIME =     0.07 SECS, INTEGRAL =      2.72 TIME LEFT: 172797.22
 STEP:  31 TIME =     0.09 SECS, INTEGRAL =      2.81 TIME LEFT: 172797.12
 STEP:  32 TIME =     0.08 SECS, INTEGRAL =      2.89 TIME LEFT: 172797.05
 STEP:  33 TIME =     0.09 SECS, INTEGRAL =      2.98 TIME LEFT: 172796.96
 STEP:  34 TIME =     0.09 SECS, INTEGRAL =      3.06 TIME LEFT: 172796.88
 STEP:  35 TIME =     0.08 SECS, INTEGRAL =      3.14 TIME LEFT: 172796.80
 STEP:  36 TIME =     0.09 SECS, INTEGRAL =      3.23 TIME LEFT: 172796.71
 STEP:  37 TIME =     0.08 SECS, INTEGRAL =      3.30 TIME LEFT: 172796.63
 STEP:  38 TIME =     0.08 SECS, INTEGRAL =      3.38 TIME LEFT: 172796.55
 STEP:  39 TIME =     0.09 SECS, INTEGRAL =      3.47 TIME LEFT: 172796.47
 STEP:  40 TIME =     0.09 SECS, INTEGRAL =      3.55 TIME LEFT: 172796.38
 STEP:  41 TIME =     0.09 SECS, INTEGRAL =      3.64 TIME LEFT: 172796.30
 STEP:  42 TIME =     0.09 SECS, INTEGRAL =      3.73 TIME LEFT: 172796.20
 STEP:  43 TIME =     0.11 SECS, INTEGRAL =      3.84 TIME LEFT: 172796.09
 STEP:  44 TIME =     0.07 SECS, INTEGRAL =      3.91 TIME LEFT: 172796.02
 STEP:  45 TIME =     0.08 SECS, INTEGRAL =      3.99 TIME LEFT: 172795.95
 STEP:  46 TIME =     0.08 SECS, INTEGRAL =      4.07 TIME LEFT: 172795.87
 STEP:  47 TIME =     0.06 SECS, INTEGRAL =      4.13 TIME LEFT: 172795.80
 STEP:  48 TIME =     0.07 SECS, INTEGRAL =      4.20 TIME LEFT: 172795.73
 STEP:  49 TIME =     0.09 SECS, INTEGRAL =      4.30 TIME LEFT: 172795.64
 STEP:  50 TIME =     0.05 SECS, INTEGRAL =      4.35 TIME LEFT: 172795.59
 STEP:  51 TIME =     0.06 SECS, INTEGRAL =      4.41 TIME LEFT: 172795.52
 STEP:  52 TIME =     0.07 SECS, INTEGRAL =      4.48 TIME LEFT: 172795.45
 STEP:  53 TIME =     0.09 SECS, INTEGRAL =      4.58 TIME LEFT: 172795.36
 STEP:  54 TIME =     0.08 SECS, INTEGRAL =      4.66 TIME LEFT: 172795.28
 STEP:  55 TIME =     0.05 SECS, INTEGRAL =      4.71 TIME LEFT: 172795.23
 STEP:  56 TIME =     0.05 SECS, INTEGRAL =      4.76 TIME LEFT: 172795.18
 STEP:  57 TIME =     0.04 SECS, INTEGRAL =      4.80 TIME LEFT: 172795.14
 STEP:  58 TIME =     0.07 SECS, INTEGRAL =      4.87 TIME LEFT: 172795.07
 STEP:  59 TIME =     0.06 SECS, INTEGRAL =      4.93 TIME LEFT: 172795.01
 STEP:  60 TIME =     0.05 SECS, INTEGRAL =      4.98 TIME LEFT: 172794.96
 STEP:  61 TIME =     0.06 SECS, INTEGRAL =      5.04 TIME LEFT: 172794.90
 STEP:  62 TIME =     0.09 SECS, INTEGRAL =      5.12 TIME LEFT: 172794.81
 STEP:  63 TIME =     0.08 SECS, INTEGRAL =      5.20 TIME LEFT: 172794.73
 STEP:  64 TIME =     0.05 SECS, INTEGRAL =      5.26 TIME LEFT: 172794.68
 STEP:  65 TIME =     0.07 SECS, INTEGRAL =      5.33 TIME LEFT: 172794.61
 STEP:  66 TIME =     0.08 SECS, INTEGRAL =      5.41 TIME LEFT: 172794.53
 STEP:  67 TIME =     0.08 SECS, INTEGRAL =      5.48 TIME LEFT: 172794.45
 STEP:  68 TIME =     0.06 SECS, INTEGRAL =      5.55 TIME LEFT: 172794.39
 STEP:  69 TIME =     0.05 SECS, INTEGRAL =      5.60 TIME LEFT: 172794.34
 STEP:  70 TIME =     0.09 SECS, INTEGRAL =      5.69 TIME LEFT: 172794.25
 STEP:  71 TIME =     0.08 SECS, INTEGRAL =      5.77 TIME LEFT: 172794.17
 STEP:  72 TIME =     0.05 SECS, INTEGRAL =      5.82 TIME LEFT: 172794.12
 STEP:  73 TIME =     0.05 SECS, INTEGRAL =      5.87 TIME LEFT: 172794.07
 STEP:  74 TIME =     0.05 SECS, INTEGRAL =      5.91 TIME LEFT: 172794.02
 STEP:  75 TIME =     0.05 SECS, INTEGRAL =      5.97 TIME LEFT: 172793.97
 STEP:  76 TIME =     0.06 SECS, INTEGRAL =      6.03 TIME LEFT: 172793.91
 STEP:  77 TIME =     0.07 SECS, INTEGRAL =      6.10 TIME LEFT: 172793.84
 STEP:  78 TIME =     0.05 SECS, INTEGRAL =      6.15 TIME LEFT: 172793.79
 STEP:  79 TIME =     0.06 SECS, INTEGRAL =      6.21 TIME LEFT: 172793.73
 STEP:  80 TIME =     0.05 SECS, INTEGRAL =      6.27 TIME LEFT: 172793.67
 STEP:  81 TIME =     0.07 SECS, INTEGRAL =      6.34 TIME LEFT: 172793.60
 STEP:  82 TIME =     0.08 SECS, INTEGRAL =      6.41 TIME LEFT: 172793.52
 STEP:  83 TIME =     0.07 SECS, INTEGRAL =      6.48 TIME LEFT: 172793.45
 STEP:  84 TIME =     0.09 SECS, INTEGRAL =      6.57 TIME LEFT: 172793.37
 STEP:  85 TIME =     0.08 SECS, INTEGRAL =      6.65 TIME LEFT: 172793.29
 STEP:  86 TIME =     0.08 SECS, INTEGRAL =      6.73 TIME LEFT: 172793.21
 STEP:  87 TIME =     0.07 SECS, INTEGRAL =      6.80 TIME LEFT: 172793.14
 STEP:  88 TIME =     0.05 SECS, INTEGRAL =      6.85 TIME LEFT: 172793.09
 STEP:  89 TIME =     0.08 SECS, INTEGRAL =      6.93 TIME LEFT: 172793.01
 STEP:  90 TIME =     0.07 SECS, INTEGRAL =      7.00 TIME LEFT: 172792.94
 STEP:  91 TIME =     0.07 SECS, INTEGRAL =      7.07 TIME LEFT: 172792.87
 STEP:  92 TIME =     0.08 SECS, INTEGRAL =      7.15 TIME LEFT: 172792.79
 STEP:  93 TIME =     0.09 SECS, INTEGRAL =      7.23 TIME LEFT: 172792.70
 STEP:  94 TIME =     0.10 SECS, INTEGRAL =      7.34 TIME LEFT: 172792.60
 STEP:  95 TIME =     0.06 SECS, INTEGRAL =      7.40 TIME LEFT: 172792.54
 STEP:  96 TIME =     0.08 SECS, INTEGRAL =      7.48 TIME LEFT: 172792.46
 STEP:  97 TIME =     0.09 SECS, INTEGRAL =      7.57 TIME LEFT: 172792.37
 STEP:  98 TIME =     0.08 SECS, INTEGRAL =      7.65 TIME LEFT: 172792.29
 STEP:  99 TIME =     0.06 SECS, INTEGRAL =      7.71 TIME LEFT: 172792.23
 STEP: 100 TIME =     0.11 SECS, INTEGRAL =      7.82 TIME LEFT: 172792.12
 STEP: 101 TIME =     0.08 SECS, INTEGRAL =      7.90 TIME LEFT: 172792.04
 STEP: 102 TIME =     0.09 SECS, INTEGRAL =      7.99 TIME LEFT: 172791.95
 STEP: 103 TIME =     0.12 SECS, INTEGRAL =      8.11 TIME LEFT: 172791.83
 STEP: 104 TIME =     0.11 SECS, INTEGRAL =      8.22 TIME LEFT: 172791.72
 STEP: 105 TIME =     0.07 SECS, INTEGRAL =      8.29 TIME LEFT: 172791.65
 STEP: 106 TIME =     0.07 SECS, INTEGRAL =      8.36 TIME LEFT: 172791.58
 STEP: 107 TIME =     0.10 SECS, INTEGRAL =      8.46 TIME LEFT: 172791.48
 STEP: 108 TIME =     0.11 SECS, INTEGRAL =      8.57 TIME LEFT: 172791.37
 STEP: 109 TIME =     0.09 SECS, INTEGRAL =      8.66 TIME LEFT: 172791.27
 STEP: 110 TIME =     0.08 SECS, INTEGRAL =      8.74 TIME LEFT: 172791.20
 STEP: 111 TIME =     0.05 SECS, INTEGRAL =      8.80 TIME LEFT: 172791.14
 STEP: 112 TIME =     0.08 SECS, INTEGRAL =      8.88 TIME LEFT: 172791.06
 STEP: 113 TIME =     0.08 SECS, INTEGRAL =      8.95 TIME LEFT: 172790.98
 STEP: 114 TIME =     0.05 SECS, INTEGRAL =      9.00 TIME LEFT: 172790.94
 STEP: 115 TIME =     0.06 SECS, INTEGRAL =      9.06 TIME LEFT: 172790.88
 STEP: 116 TIME =     0.09 SECS, INTEGRAL =      9.16 TIME LEFT: 172790.78
 STEP: 117 TIME =     0.07 SECS, INTEGRAL =      9.23 TIME LEFT: 172790.71
 STEP: 118 TIME =     0.07 SECS, INTEGRAL =      9.30 TIME LEFT: 172790.64
 STEP: 119 TIME =     0.07 SECS, INTEGRAL =      9.37 TIME LEFT: 172790.57
 STEP: 120 TIME =     0.05 SECS, INTEGRAL =      9.42 TIME LEFT: 172790.52
 STEP: 121 TIME =     0.05 SECS, INTEGRAL =      9.47 TIME LEFT: 172790.47
 STEP: 122 TIME =     0.05 SECS, INTEGRAL =      9.52 TIME LEFT: 172790.42
 STEP: 123 TIME =     0.05 SECS, INTEGRAL =      9.56 TIME LEFT: 172790.38
 STEP: 124 TIME =     0.07 SECS, INTEGRAL =      9.63 TIME LEFT: 172790.30
 STEP: 125 TIME =     0.08 SECS, INTEGRAL =      9.71 TIME LEFT: 172790.23
 STEP: 126 TIME =     0.06 SECS, INTEGRAL =      9.77 TIME LEFT: 172790.16
 STEP: 127 TIME =     0.08 SECS, INTEGRAL =      9.85 TIME LEFT: 172790.09
 STEP: 128 TIME =     0.08 SECS, INTEGRAL =      9.93 TIME LEFT: 172790.01
 STEP: 129 TIME =     0.09 SECS, INTEGRAL =     10.02 TIME LEFT: 172789.91
 STEP: 130 TIME =     0.08 SECS, INTEGRAL =     10.10 TIME LEFT: 172789.84
 STEP: 131 TIME =     0.08 SECS, INTEGRAL =     10.18 TIME LEFT: 172789.76
 STEP: 132 TIME =     0.07 SECS, INTEGRAL =     10.25 TIME LEFT: 172789.69
 STEP: 133 TIME =     0.07 SECS, INTEGRAL =     10.32 TIME LEFT: 172789.62
 STEP: 134 TIME =     0.06 SECS, INTEGRAL =     10.38 TIME LEFT: 172789.55
 STEP: 135 TIME =     0.05 SECS, INTEGRAL =     10.43 TIME LEFT: 172789.51
 STEP: 136 TIME =     0.05 SECS, INTEGRAL =     10.48 TIME LEFT: 172789.45
 STEP: 137 TIME =     0.06 SECS, INTEGRAL =     10.55 TIME LEFT: 172789.39
 STEP: 138 TIME =     0.09 SECS, INTEGRAL =     10.63 TIME LEFT: 172789.30

(To convert to Hartree/Bohr^2, multiply by (10^(-21) x N x a0^2)/(4.184 x 627.51) =  0.0642)


           FORCE MATRIX IN MILLIDYNES/ANGSTROM


                  C  1       C  2       C  3       C  4       C  5       C  6
 ------------------------------------------------------------------------------
     C    1  11.953600
     C    2   3.697485  15.521081
     C    3   0.803307   5.278221  15.397295
     C    4   0.114427   1.994438   6.694322  17.132847
     C    5   0.681231   0.082538   0.785780   3.296573  11.896365
     C    6   2.985360   0.669273   0.077936   0.695051   2.896724  11.867918
     C    7   0.791339   5.540418   1.597544   0.770278   0.043984   0.068371
     C    8   0.086931   0.753620   0.117083   0.097850   0.009804   0.009855
     N    9   0.065410   0.602306   1.886573   6.461151   0.993681   0.059186
     C   10   0.016079   0.155019   0.190947   0.908119   0.090356   0.012898
     C   11   0.009800   0.093099   0.141302   0.193739   0.015641   0.006497
     C   12   0.006747   0.066611   0.090241   0.138094   0.023684   0.005085
     H   13   3.021086   0.791734   0.052044   0.022763   0.043146   0.657380
     H   14   3.237301   0.758737   0.035680   0.020654   0.008516   0.666088
     H   15   0.053406   0.791756   3.426839   0.810026   0.074006   0.007032
     H   16   0.010325   0.032475   0.041853   0.755055   3.246464   0.673176
     H   17   0.047583   0.017984   0.046144   0.722670   3.303571   0.669878
     H   18   0.668224   0.052940   0.008127   0.046818   0.675961   3.327519
     H   19   0.688890   0.037595   0.021076   0.041594   0.686096   3.298080
     H   20   0.067261   0.802210   0.092083   0.069698   0.005238   0.007228
     H   21   0.009063   0.040494   0.016461   0.010576   0.002911   0.002319
     H   22   0.005581   0.059154   0.013517   0.016276   0.001353   0.001609
     H   23   0.022240   0.044430   0.029867   0.031692   0.004128   0.002881
     H   24   0.008589   0.078478   0.125142   0.931942   0.062630   0.006950
     H   25   0.002380   0.019005   0.048512   0.093958   0.009498   0.001829
     H   26   0.001406   0.012997   0.019112   0.024154   0.003397   0.000684
     H   27   0.002256   0.017485   0.024267   0.035777   0.004566   0.001943
     H   28   0.003391   0.029646   0.047278   0.069720   0.005636   0.002475
     H   29   0.001417   0.011399   0.017047   0.025820   0.003048   0.000879
     H   30   0.002079   0.017725   0.025590   0.040180   0.004785   0.001458
     H   31   0.001649   0.014702   0.021099   0.034052   0.003777   0.001397
     C   32   0.009712   0.074978   0.073094   0.079794   0.006367   0.005416
     C   33   0.012730   0.118452   0.069391   0.052820   0.003564   0.003535
     C   34   0.199957   1.766259   0.779571   0.666366   0.041477   0.042687
     C   35   0.188380   0.713076   0.522153   0.507562   0.035559   0.039207
     C   36   0.081421   0.502857   0.445584   0.468222   0.030897   0.034341
     O   37   0.030819   0.198174   0.168524   0.169593   0.013587   0.014653
     C   38   0.007990   0.045626   0.044738   0.043954   0.004150   0.003184
     H   39   0.001660   0.013237   0.012464   0.014546   0.001599   0.001271
     H   40   0.002928   0.015195   0.014468   0.014545   0.001346   0.001238
     H   41   0.002595   0.024576   0.016589   0.014882   0.001142   0.000981
     H   42   0.015159   0.181024   0.062758   0.038749   0.003354   0.003341


                  C  1       C  2       C  3       C  4       C  5       C  6
 ------------------------------------------------------------------------------
     H   43   0.021588   0.064689   0.049739   0.051802   0.006487   0.006110
     H   44   0.002889   0.012194   0.013805   0.012771   0.001435   0.000992
     H   45   0.001238   0.008219   0.007295   0.007186   0.000994   0.000744
     H   46   0.002401   0.015069   0.015543   0.014277   0.000955   0.000713


                  C  7       C  8       N  9       C 10       C 11       C 12
 ------------------------------------------------------------------------------
     C    7  12.595712
     C    8   3.319867  11.419668
     N    9   0.439761   0.061852  14.860222
     C   10   0.121436   0.016419   3.575489  12.599455
     C   11   0.072754   0.010263   0.936517   2.825030  11.265167
     C   12   0.052426   0.007502   0.961285   2.916062   0.692492  11.342357
     H   13   0.132769   0.024741   0.017951   0.004605   0.002620   0.001607
     H   14   0.053683   0.013725   0.010484   0.002658   0.001981   0.002357
     H   15   0.061805   0.008650   0.064443   0.072059   0.019260   0.011098
     H   16   0.019127   0.004942   0.042080   0.012603   0.004611   0.004238
     H   17   0.015847   0.002604   0.059804   0.007935   0.005027   0.005074
     H   18   0.014963   0.003349   0.009552   0.002681   0.001228   0.001560
     H   19   0.030908   0.003834   0.012952   0.004171   0.004918   0.002468
     H   20   3.269412   0.667599   0.043771   0.012944   0.008270   0.005650
     H   21   0.686140   3.401362   0.007486   0.001745   0.001325   0.001334
     H   22   0.682316   3.402480   0.010857   0.003221   0.002130   0.001598
     H   23   0.689327   3.340260   0.021708   0.005743   0.003500   0.002590
     H   24   0.046357   0.008719   3.689934   0.699128   0.024819   0.039354
     H   25   0.012721   0.002982   0.803171   3.105586   0.659528   0.661006
     H   26   0.010861   0.001626   0.054393   0.672343   3.434706   0.015297
     H   27   0.013077   0.002342   0.021788   0.688919   3.446069   0.012457
     H   28   0.024351   0.003173   0.052607   0.681847   3.406110   0.045998
     H   29   0.009446   0.001405   0.053654   0.675918   0.015834   3.424193
     H   30   0.012594   0.002164   0.024928   0.680781   0.046209   3.427396
     H   31   0.011106   0.001664   0.017542   0.682056   0.012448   3.439484
     C   32   0.114820   0.053440   0.057010   0.016638   0.010804   0.007733
     C   33   0.449224   0.013270   0.030682   0.009460   0.006346   0.004535
     C   34   2.639295   0.482307   0.398131   0.109881   0.066023   0.047575
     C   35   1.543702   0.193324   0.329171   0.089533   0.054181   0.039531
     C   36   0.773200   0.132895   0.321666   0.089575   0.053723   0.039735
     O   37   0.283642   0.038670   0.113331   0.030708   0.019609   0.015085
     C   38   0.097083   0.049511   0.031004   0.010284   0.007712   0.005363
     H   39   0.019530   0.002741   0.010425   0.002875   0.001968   0.001509
     H   40   0.020754   0.009866   0.010126   0.002708   0.001896   0.001417
     H   41   0.050001   0.003758   0.010122   0.003517   0.002836   0.001624
     H   42   0.660607   0.007313   0.022237   0.006539   0.005333   0.003401
     H   43   0.097066   0.015072   0.035449   0.008187   0.004957   0.003378
     H   44   0.028032   0.022471   0.008953   0.002802   0.001983   0.001381
     H   45   0.012869   0.003368   0.005367   0.001574   0.001468   0.001123
     H   46   0.014872   0.005516   0.009452   0.003337   0.003102   0.001876


                  H 13       H 14       H 15       H 16       H 17       H 18
 ------------------------------------------------------------------------------
     H   13   3.987099
     H   14   0.444149   4.194966
     H   15   0.006720   0.006185   4.416620
     H   16   0.002961   0.010337   0.010743   4.190219
     H   17   0.007441   0.002202   0.008605   0.447196   4.237248
     H   18   0.020867   0.022531   0.001034   0.020178   0.020813   4.244256
     H   19   0.029219   0.043723   0.002204   0.045730   0.021219   0.451085
     H   20   0.010171   0.007611   0.025302   0.001890   0.001556   0.001955
     H   21   0.008553   0.010858   0.001658   0.001555   0.000508   0.001030
     H   22   0.003362   0.002652   0.001705   0.000888   0.000537   0.000666
     H   23   0.028122   0.012154   0.002088   0.001650   0.000835   0.001471
     H   24   0.002831   0.001820   0.008858   0.015390   0.030797   0.002164
     H   25   0.000539   0.000672   0.032270   0.001499   0.000776   0.000358
     H   26   0.000440   0.000487   0.005535   0.000448   0.000606   0.000393
     H   27   0.000587   0.000662   0.002906   0.000876   0.001937   0.000517
     H   28   0.001121   0.000598   0.016818   0.001009   0.001758   0.000549
     H   29   0.000573   0.000459   0.002405   0.000596   0.000454   0.000469
     H   30   0.000639   0.000727   0.002823   0.001928   0.001384   0.000473
     H   31   0.000498   0.000542   0.001688   0.000963   0.001546   0.000426
     C   32   0.007811   0.004260   0.005987   0.003216   0.002641   0.002100
     C   33   0.005832   0.002974   0.004929   0.001518   0.001483   0.001112
     C   34   0.138459   0.039799   0.037973   0.016687   0.014640   0.014460
     C   35   0.120208   0.034099   0.024915   0.014401   0.013361   0.015231
     C   36   0.051770   0.024483   0.023217   0.014677   0.013415   0.014844
     O   37   0.023635   0.010278   0.007694   0.006170   0.005719   0.007563
     C   38   0.003654   0.002378   0.007071   0.001911   0.001894   0.001575
     H   39   0.000910   0.000542   0.000720   0.000622   0.000649   0.000576
     H   40   0.001890   0.001295   0.000969   0.000681   0.000559   0.000552
     H   41   0.001176   0.000607   0.001871   0.000532   0.000568   0.000305
     H   42   0.012447   0.002985   0.012822   0.001235   0.000967   0.001221
     H   43   0.047291   0.006619   0.002249   0.001220   0.001685   0.003297
     H   44   0.001404   0.001161   0.001797   0.000613   0.000565   0.000361
     H   45   0.000460   0.000408   0.001059   0.000428   0.000452   0.000452
     H   46   0.000824   0.000610   0.003453   0.000446   0.000501   0.000388


                  H 19       H 20       H 21       H 22       H 23       H 24
 ------------------------------------------------------------------------------
     H   19   4.219755
     H   20   0.002718   4.311440
     H   21   0.000858   0.013537   4.215519
     H   22   0.000633   0.025295   0.467888   4.196668
     H   23   0.001539   0.038756   0.461820   0.460600   4.143959
     H   24   0.003741   0.004271   0.001187   0.001523   0.002764   4.604321
     H   25   0.000610   0.002673   0.000648   0.000582   0.000965   0.067118
     H   26   0.000466   0.001575   0.000250   0.000464   0.000512   0.005831
     H   27   0.001437   0.001221   0.000359   0.000459   0.000672   0.014375
     H   28   0.002443   0.002977   0.000492   0.000580   0.001020   0.010331
     H   29   0.000359   0.001097   0.000251   0.000395   0.000534   0.004561
     H   30   0.000712   0.001306   0.000494   0.000469   0.000716   0.023007
     H   31   0.000565   0.001098   0.000300   0.000355   0.000536   0.025855
     C   32   0.003135   0.011891   0.005119   0.013649   0.013997   0.006625
     C   33   0.001898   0.026308   0.003256   0.009279   0.002220   0.003252
     C   34   0.032278   0.599326   0.041567   0.031776   0.071864   0.042060
     C   35   0.028392   0.085557   0.020988   0.028846   0.068452   0.037370
     C   36   0.020628   0.057611   0.019088   0.033352   0.073148   0.038524
     O   37   0.008869   0.022579   0.007817   0.009020   0.026377   0.014974
     C   38   0.001564   0.046354   0.004384   0.019519   0.006253   0.003987
     H   39   0.000595   0.002049   0.000633   0.002493   0.001659   0.001394
     H   40   0.000699   0.002960   0.002531   0.019814   0.011786   0.001313
     H   41   0.000737   0.003080   0.000697   0.000979   0.000861   0.001010
     H   42   0.002824   0.023163   0.002711   0.003532   0.007699   0.002394
     H   43   0.008971   0.007719   0.002319   0.002196   0.010884   0.003965
     H   44   0.000641   0.033042   0.003213   0.027133   0.003886   0.001116
     H   45   0.000281   0.003017   0.000842   0.002911   0.001071   0.000935
     H   46   0.000362   0.027114   0.001188   0.002963   0.001056   0.001003


                  H 25       H 26       H 27       H 28       H 29       H 30
 ------------------------------------------------------------------------------
     H   25   4.203120
     H   26   0.018598   4.215847
     H   27   0.045213   0.462336   4.222990
     H   28   0.017517   0.457968   0.458179   4.177303
     H   29   0.020996   0.018267   0.007578   0.003075   4.204397
     H   30   0.018743   0.002722   0.002706   0.007982   0.459955   4.206820
     H   31   0.044161   0.007241   0.016129   0.003052   0.462196   0.459590
     C   32   0.002412   0.002263   0.002027   0.003116   0.001677   0.001747
     C   33   0.001357   0.001186   0.001181   0.002405   0.001024   0.001089
     C   34   0.010574   0.009450   0.012156   0.022485   0.008462   0.011443
     C   35   0.008844   0.008270   0.010816   0.015475   0.007496   0.009446
     C   36   0.008834   0.008975   0.010905   0.014021   0.008041   0.009577
     O   37   0.003054   0.003637   0.004797   0.005302   0.003391   0.004133
     C   38   0.002613   0.002268   0.001511   0.002772   0.001514   0.001385
     H   39   0.000393   0.000441   0.000440   0.000672   0.000309   0.000345
     H   40   0.000345   0.000415   0.000398   0.000609   0.000297   0.000344
     H   41   0.000402   0.000614   0.000485   0.001432   0.000313   0.000447
     H   42   0.001027   0.001289   0.000953   0.002282   0.000690   0.000703
     H   43   0.000734   0.000386   0.001070   0.002118   0.000390   0.000820
     H   44   0.000656   0.000558   0.000418   0.000651   0.000337   0.000385
     H   45   0.000458   0.000432   0.000413   0.000538   0.000319   0.000322
     H   46   0.000993   0.000979   0.000434   0.001174   0.000498   0.000424


                  H 31       C 32       C 33       C 34       C 35       C 36
 ------------------------------------------------------------------------------
     H   31   4.216052
     C   32   0.001591  11.403182
     C   33   0.000978   2.684636  12.243656
     C   34   0.010158   0.740812   2.302444  11.892071
     C   35   0.008543   0.998703   0.944704   5.645288  14.381380
     C   36   0.008783   2.381169   0.886044   1.970931   4.868610  18.305107
     O   37   0.003888   1.207700   0.077655   0.383171   1.678380  11.525566
     C   38   0.001421   0.631004   3.207063   0.488855   0.079417   0.099931
     H   39   0.000389   3.394252   0.636593   0.047497   0.050350   0.704408
     H   40   0.000262   3.384354   0.639597   0.025567   0.047776   0.703341
     H   41   0.000369   0.673753   3.168558   0.716731   0.027457   0.035477
     H   42   0.000634   0.040700   0.605725   3.322156   0.723513   0.102291
     H   43   0.000781   0.057854   0.063196   0.716960   3.639065   0.675807
     H   44   0.000365   0.011736   0.682208   0.026605   0.018296   0.021903
     H   45   0.000376   0.011425   0.697332   0.038207   0.010412   0.019100
     H   46   0.000524   0.045421   0.683252   0.026931   0.014558   0.016930


                  O 37       C 38       H 39       H 40       H 41       H 42
 ------------------------------------------------------------------------------
     O   37  13.488934
     C   38   0.035389  11.426400
     H   39   0.048238   0.013807   4.280388
     H   40   0.049184   0.017957   0.460492   4.279399
     H   41   0.010278   0.726396   0.028095   0.036530   4.251067
     H   42   0.034938   0.006538   0.005213   0.003826   0.027679   4.279422
     H   43   0.042547   0.009975   0.004563   0.003526   0.007210   0.019350
     H   44   0.007949   3.406503   0.003488   0.019739   0.046127   0.002694
     H   45   0.007813   3.418575   0.006149   0.009411   0.023275   0.000962
     H   46   0.004247   3.430707   0.002218   0.002890   0.017745   0.004734


                  H 43       H 44       H 45       H 46
 ------------------------------------------------------
     H   43   4.525974
     H   44   0.001988   4.199616
     H   45   0.001542   0.466856   4.218656
     H   46   0.001129   0.467644   0.467698   4.229518


          HEAT OF FORMATION =     -13.615548 KCALS/MOLE

          ZERO POINT ENERGY     239.743 KCAL/MOL

         NOTE: SYSTEM IS NOT A GROUND STATE, THEREFORE ZERO POINT
         ENERGY IS NOT MEANINGFULL. ZERO POINT ENERGY PRINTED
         DOES NOT INCLUDE THE  1 IMAGINARY FREQUENCIES


           NORMAL COORDINATE ANALYSIS (Total motion = 1 Angstrom)


   Root No.       1         2         3         4         5         6         7         8

                 1 A       2 A       3 A       4 A       5 A       6 A       7 A       8 A   

                -489.0      17.7      39.0      42.3      58.3      82.7      98.7     115.1
  
           1    0.0070   -0.0052    0.0030    0.0111   -0.0038    0.0020    0.0060    0.0011
           2    0.0003   -0.0029    0.0000   -0.0107   -0.0041    0.0039    0.0038    0.0020
           3    0.0056   -0.0064    0.0105   -0.0049   -0.0208   -0.0246   -0.0053   -0.0002
           4   -0.0016   -0.0052    0.0030    0.0113   -0.0037    0.0023    0.0062    0.0015
           5    0.0182   -0.0048    0.0009   -0.0040   -0.0056    0.0046    0.0004   -0.0057
           6    0.0200   -0.0119    0.0075   -0.0051   -0.0142   -0.0025   -0.0103   -0.0087
           7   -0.0022   -0.0030    0.0029    0.0052   -0.0030    0.0018    0.0066    0.0084
           8   -0.0124   -0.0062    0.0011   -0.0005   -0.0063    0.0050    0.0006   -0.0090
           9   -0.0086   -0.0150    0.0086   -0.0026   -0.0060    0.0121   -0.0176   -0.0176
          10   -0.0024   -0.0012    0.0027   -0.0016   -0.0017    0.0024    0.0060    0.0116
          11    0.0099   -0.0049    0.0001   -0.0033   -0.0043    0.0051    0.0010   -0.0062
          12   -0.0045   -0.0110   -0.0030    0.0079    0.0115    0.0066   -0.0091   -0.0062
          13   -0.0014   -0.0006    0.0037   -0.0029   -0.0021    0.0044    0.0027    0.0108
          14    0.0009   -0.0035   -0.0029   -0.0089    0.0003    0.0053    0.0038   -0.0023
          15   -0.0016   -0.0163   -0.0152    0.0180    0.0187   -0.0152    0.0239   -0.0027
          16   -0.0002   -0.0032    0.0009    0.0064   -0.0026   -0.0078    0.0180    0.0116
          17   -0.0010    0.0003    0.0047   -0.0185   -0.0110    0.0021   -0.0027    0.0037
          18   -0.0026   -0.0123   -0.0051    0.0100   -0.0004   -0.0320    0.0268    0.0067
          19    0.0262   -0.0069    0.0017    0.0155   -0.0033   -0.0003    0.0040   -0.0093
          20   -0.0283   -0.0058   -0.0000   -0.0016   -0.0054    0.0033   -0.0006   -0.0120
          21    0.1409   -0.0106    0.0011   -0.0063   -0.0111   -0.0019   -0.0076   -0.0022
          22    0.0047   -0.0129   -0.0031    0.0187   -0.0016    0.0009    0.0064   -0.0233
          23    0.0087   -0.0077    0.0029   -0.0027   -0.0081    0.0058    0.0007   -0.0107
          24    0.0115    0.0030    0.0003   -0.0084   -0.0066   -0.0099   -0.0146    0.0129
          25   -0.0029    0.0003    0.0007   -0.0082    0.0005   -0.0004    0.0059    0.0059
          26   -0.0075   -0.0056    0.0013    0.0003   -0.0055    0.0065    0.0015   -0.0034
          27    0.0086   -0.0013   -0.0058    0.0105    0.0252    0.0190   -0.0287    0.0065
          28    0.0041   -0.0017   -0.0026   -0.0069    0.0022    0.0017    0.0020    0.0044
          29   -0.0015   -0.0088    0.0073    0.0075   -0.0097    0.0114    0.0067    0.0138
          30   -0.0000    0.0154    0.0121   -0.0041    0.0153   -0.0000   -0.0039    0.0033
          31   -0.0019   -0.0171   -0.0256    0.0097    0.0069    0.0252   -0.0268    0.0088
          32   -0.0007   -0.0282    0.0436   -0.0011    0.0227    0.0048    0.0059    0.0190
          33   -0.0012    0.0180    0.0183   -0.0080    0.0155   -0.0055    0.0024    0.0026
          34   -0.0028    0.0052    0.0053   -0.0217    0.0078   -0.0143    0.0082   -0.0178
          35   -0.0017   -0.0011   -0.0071    0.0148   -0.0272    0.0179    0.0099    0.0231
          36   -0.0006    0.0373   -0.0129    0.0003   -0.0179    0.0010    0.0079    0.0048
          37    0.0233   -0.0034    0.0062    0.0143   -0.0087   -0.0073    0.0032   -0.0006
          38   -0.0032    0.0015    0.0071   -0.0187   -0.0137    0.0027   -0.0083    0.0025
          39    0.0313   -0.0000    0.0216   -0.0130   -0.0361   -0.0320   -0.0228   -0.0005
          40    0.0003   -0.0089    0.0010    0.0119    0.0006    0.0182    0.0014   -0.0058
          41   -0.0298   -0.0086   -0.0135   -0.0015    0.0141    0.0058    0.0291    0.0067
          42    0.0165   -0.0036    0.0147   -0.0074   -0.0271   -0.0314   -0.0100    0.0011
          43    0.0010   -0.0029    0.0024    0.0057   -0.0027    0.0008    0.0076    0.0087
          44   -0.0043   -0.0080    0.0018    0.0047   -0.0079    0.0057    0.0005   -0.0122
          45   -0.0074   -0.0182    0.0167   -0.0080   -0.0093    0.0287   -0.0334   -0.0280
          46   -0.0050    0.0028    0.0115   -0.0093   -0.0062    0.0216   -0.0225    0.0081
          47    0.0003   -0.0085   -0.0165    0.0005    0.0201    0.0112    0.0154   -0.0088
          48   -0.0021   -0.0169   -0.0168    0.0193    0.0192   -0.0195    0.0298   -0.0019
          49   -0.0083   -0.0011   -0.0004   -0.0046    0.0011   -0.0017    0.0130    0.0137
          50   -0.0007   -0.0013    0.0012   -0.0145   -0.0058    0.0033    0.0003    0.0010
          51   -0.0021   -0.0223   -0.0299    0.0298    0.0373   -0.0168    0.0437   -0.0079
          52   -0.0007   -0.0031    0.0015    0.0056   -0.0026   -0.0050    0.0144    0.0100
          53   -0.0044    0.0016    0.0031   -0.0228   -0.0078    0.0018    0.0002    0.0088
          54   -0.0042   -0.0134   -0.0094    0.0152   -0.0000   -0.0528    0.0540    0.0187
          55   -0.0077   -0.0041   -0.0033    0.0109   -0.0023   -0.0287    0.0453    0.0240
          56   -0.0011    0.0044    0.0163   -0.0280   -0.0287   -0.0014   -0.0166    0.0038
          57    0.0005   -0.0125   -0.0056    0.0103    0.0012   -0.0287    0.0241    0.0049
          58   -0.0062   -0.0093    0.0006    0.0161   -0.0032    0.0019    0.0062   -0.0111
          59    0.0043   -0.0097   -0.0011    0.0008   -0.0057    0.0034   -0.0012   -0.0238
          60   -0.0263   -0.0193   -0.0025   -0.0033   -0.0110    0.0055   -0.0000   -0.0094
          61    0.0356   -0.0208   -0.0083    0.0126   -0.0029    0.0009    0.0079   -0.0148
          62    0.0638   -0.0139    0.0072    0.0007   -0.0121    0.0111    0.0051   -0.0230
          63    0.0141    0.0049    0.0025   -0.0060   -0.0066   -0.0092   -0.0145    0.0089
          64   -0.0068   -0.0141   -0.0046    0.0225    0.0000    0.0016    0.0078   -0.0355
          65   -0.0017   -0.0087    0.0016   -0.0000   -0.0068    0.0061    0.0016   -0.0191
          66   -0.0058    0.0035   -0.0066   -0.0165   -0.0041   -0.0146   -0.0175    0.0329
          67   -0.0046   -0.0083   -0.0003    0.0228   -0.0004    0.0016    0.0060   -0.0305
          68   -0.0144   -0.0023    0.0024   -0.0090   -0.0077    0.0016   -0.0033    0.0097
          69   -0.0069    0.0117    0.0040   -0.0050   -0.0046   -0.0105   -0.0169    0.0113
          70    0.0040    0.0012   -0.0015   -0.0129    0.0027   -0.0025    0.0033   -0.0017
          71    0.0022   -0.0051    0.0001   -0.0026   -0.0043    0.0052    0.0004   -0.0073
          72   -0.0295   -0.0007   -0.0173    0.0198    0.0356    0.0189   -0.0263    0.0102
          73    0.0043    0.0032    0.0064   -0.0075   -0.0039   -0.0022    0.0140    0.0144
          74   -0.0012   -0.0024   -0.0048    0.0143   -0.0245    0.0167    0.0094    0.0213
          75   -0.0008    0.0097    0.0404   -0.0157    0.0333   -0.0124    0.0039    0.0020
          76   -0.0008   -0.0189   -0.0286    0.0115    0.0076    0.0280   -0.0307    0.0082
          77   -0.0001   -0.0305    0.0532    0.0018    0.0235    0.0042    0.0175    0.0435
          78    0.0015    0.0296    0.0341   -0.0194    0.0110   -0.0224    0.0239    0.0003
          79   -0.0000   -0.0228   -0.0384    0.0126    0.0113    0.0337   -0.0466   -0.0090
          80   -0.0001   -0.0354    0.0538   -0.0063    0.0361    0.0024   -0.0006    0.0080
          81    0.0006    0.0241   -0.0078    0.0023   -0.0013    0.0053   -0.0042    0.0047
          82    0.0023   -0.0217   -0.0277    0.0181    0.0058    0.0322   -0.0249    0.0308
          83   -0.0014   -0.0341    0.0519   -0.0054    0.0335    0.0031    0.0003    0.0100
          84    0.0037    0.0023    0.0335   -0.0099    0.0366   -0.0034   -0.0076    0.0018
          85   -0.0015    0.0046    0.0043   -0.0216    0.0088   -0.0138    0.0065   -0.0192
          86    0.0012   -0.0033   -0.0055    0.0218   -0.0319    0.0241    0.0130    0.0401
          87   -0.0006    0.0486   -0.0024   -0.0090   -0.0254   -0.0124    0.0266    0.0017
          88    0.0016    0.0151    0.0177   -0.0319    0.0030   -0.0282    0.0260   -0.0221
          89    0.0010    0.0133   -0.0317    0.0203   -0.0510    0.0226    0.0119    0.0221
          90   -0.0015    0.0358   -0.0171    0.0030   -0.0182    0.0046    0.0038    0.0058
          91   -0.0001    0.0016   -0.0004   -0.0231    0.0152   -0.0130   -0.0030   -0.0300
          92   -0.0001   -0.0073    0.0045    0.0085   -0.0126    0.0124    0.0071    0.0148
          93    0.0002    0.0450   -0.0384    0.0103   -0.0369    0.0120    0.0026    0.0086
          94    0.0004    0.0055   -0.0062   -0.0178    0.0044   -0.0003   -0.0042    0.0097
          95    0.0063    0.0120   -0.0108    0.0007    0.0115   -0.0101   -0.0041    0.0051
          96   -0.0039    0.0053   -0.0062    0.0000    0.0044    0.0049    0.0001    0.0264
          97   -0.0065    0.0073    0.0025   -0.0030   -0.0005   -0.0052   -0.0092    0.0021
          98    0.0045    0.0064   -0.0185   -0.0115    0.0136   -0.0084   -0.0002    0.0050
          99   -0.0186   -0.0104   -0.0085   -0.0008   -0.0023   -0.0029    0.0003    0.0019
         100   -0.0124    0.0089    0.0113    0.0121   -0.0056   -0.0096   -0.0137   -0.0042
         101   -0.0008    0.0072   -0.0091   -0.0009    0.0070   -0.0110   -0.0054   -0.0012
         102   -0.1371   -0.0116    0.0008   -0.0045   -0.0114   -0.0013   -0.0063   -0.0042
         103   -0.0184    0.0126    0.0121    0.0085   -0.0054   -0.0101   -0.0155   -0.0030
         104   -0.0103    0.0161    0.0004    0.0159    0.0051   -0.0164   -0.0116   -0.0034
         105   -0.0168    0.0006    0.0065   -0.0041   -0.0113   -0.0054   -0.0125   -0.0021
         106   -0.0023    0.0101    0.0015   -0.0091    0.0013    0.0013   -0.0048    0.0009
         107    0.0217    0.0190    0.0005    0.0183    0.0075   -0.0122   -0.0081   -0.0031
         108   -0.0014    0.0112    0.0033   -0.0011   -0.0000    0.0166    0.0065    0.0001
         109    0.0028    0.0111   -0.0018   -0.0173    0.0048    0.0135    0.0056   -0.0035
         110   -0.0017    0.0253    0.0082    0.0317    0.0064   -0.0094   -0.0067   -0.0097
         111    0.0030    0.0225    0.0069   -0.0003    0.0062    0.0480    0.0318   -0.0188
         112    0.0076   -0.0018   -0.0065   -0.0050    0.0019   -0.0098   -0.0037   -0.0095
         113   -0.0059   -0.0043   -0.0251   -0.0258    0.0118   -0.0106    0.0014   -0.0085
         114   -0.0012   -0.0165   -0.0158    0.0022    0.0009   -0.0072    0.0059   -0.0062
         115   -0.0016    0.0101   -0.0064   -0.0254    0.0066    0.0087    0.0008    0.0093
         116    0.0185    0.0169   -0.0159   -0.0024    0.0179   -0.0108   -0.0065    0.0317
         117    0.0029    0.0068   -0.0095    0.0007    0.0079    0.0011   -0.0034    0.0446
         118   -0.0094   -0.0037   -0.0172   -0.0264    0.0073   -0.0072   -0.0057    0.0225
         119    0.0010    0.0067   -0.0078    0.0013    0.0064   -0.0088   -0.0010   -0.0188
         120    0.0051    0.0109   -0.0075    0.0006    0.0084    0.0045   -0.0025    0.0451
         121   -0.0363    0.0158    0.0109   -0.0013   -0.0028   -0.0008   -0.0143    0.0123
         122    0.0414    0.0113   -0.0259   -0.0157    0.0222   -0.0050    0.0048    0.0189
         123   -0.0213   -0.0164   -0.0105   -0.0003   -0.0038   -0.0063    0.0015   -0.0083
         124   -0.0086    0.0139    0.0207    0.0235   -0.0098   -0.0134   -0.0196   -0.0077
         125   -0.0193    0.0068   -0.0134   -0.0059    0.0098   -0.0099   -0.0032    0.0012
         126    0.0606   -0.0229   -0.0005   -0.0080   -0.0147    0.0050   -0.0004   -0.0080
         127    0.0220    0.0166    0.0196    0.0175   -0.0097   -0.0167   -0.0217   -0.0062
         128    0.0090    0.0203    0.0069    0.0261    0.0026   -0.0203   -0.0158   -0.0058
         129    0.0297    0.0007    0.0130   -0.0054   -0.0196   -0.0165   -0.0209   -0.0061
         130    0.0153   -0.0105   -0.0152   -0.0072    0.0042   -0.0142    0.0017   -0.0210
         131   -0.0146   -0.0083   -0.0193   -0.0240    0.0047   -0.0118   -0.0022   -0.0207
         132    0.0004   -0.0109   -0.0145    0.0025    0.0030   -0.0047    0.0051    0.0041
         133    0.0011   -0.0018   -0.0103   -0.0136    0.0043   -0.0088   -0.0029   -0.0051
         134   -0.0028   -0.0045   -0.0316   -0.0315    0.0167   -0.0107    0.0046   -0.0034
         135    0.0133   -0.0168   -0.0217    0.0056    0.0061   -0.0089    0.0105   -0.0039
         136    0.0092   -0.0002   -0.0009    0.0043   -0.0011   -0.0099   -0.0054   -0.0120
         137   -0.0079   -0.0083   -0.0295   -0.0328    0.0126   -0.0117    0.0029   -0.0123
         138    0.0008   -0.0265   -0.0175    0.0007   -0.0035   -0.0112    0.0067   -0.0251


   Root No.       9        10        11        12        13        14        15        16

                 9 A      10 A      11 A      12 A      13 A      14 A      15 A      16 A   

                 126.2     157.1     163.6     178.6     187.7     194.8     200.3     216.9
  
           1   -0.0003    0.0017   -0.0005    0.0016   -0.0044    0.0019   -0.0071    0.0064
           2    0.0042   -0.0014   -0.0002   -0.0071    0.0029   -0.0055    0.0019   -0.0068
           3   -0.0157    0.0267    0.0059    0.0061    0.0058    0.0039    0.0093   -0.0043
           4   -0.0003    0.0013   -0.0007    0.0008   -0.0043    0.0014   -0.0070    0.0058
           5    0.0066    0.0026    0.0013   -0.0040    0.0016   -0.0042   -0.0032   -0.0011
           6    0.0034   -0.0027    0.0010    0.0090   -0.0008    0.0063    0.0064    0.0012
           7   -0.0055   -0.0006   -0.0015    0.0038   -0.0045    0.0035   -0.0025    0.0058
           8    0.0092    0.0038    0.0016   -0.0055    0.0017   -0.0045   -0.0050   -0.0013
           9    0.0113   -0.0117    0.0002    0.0257   -0.0028    0.0215    0.0305    0.0032
          10   -0.0071   -0.0037   -0.0018    0.0054   -0.0037    0.0048    0.0026    0.0029
          11    0.0080    0.0024    0.0012   -0.0065    0.0021   -0.0055   -0.0040   -0.0034
          12    0.0055   -0.0077   -0.0002    0.0102    0.0005    0.0084    0.0115   -0.0000
          13   -0.0076   -0.0028   -0.0014    0.0060   -0.0033    0.0052    0.0037    0.0028
          14    0.0097   -0.0080   -0.0005   -0.0084    0.0039   -0.0071   -0.0011   -0.0105
          15    0.0140   -0.0199   -0.0038    0.0012   -0.0011    0.0023   -0.0002   -0.0027
          16   -0.0076    0.0070   -0.0012   -0.0007   -0.0045    0.0008   -0.0041    0.0075
          17   -0.0025    0.0064    0.0017   -0.0061    0.0054   -0.0053    0.0056   -0.0098
          18   -0.0058    0.0134    0.0004   -0.0008    0.0005    0.0010    0.0033    0.0029
          19    0.0046    0.0076    0.0026    0.0010   -0.0001    0.0018   -0.0090    0.0061
          20    0.0090    0.0063    0.0032   -0.0039    0.0038   -0.0033   -0.0068    0.0011
          21    0.0044   -0.0103   -0.0016   -0.0023   -0.0038   -0.0015   -0.0165    0.0075
          22    0.0100    0.0185    0.0078    0.0030    0.0062    0.0073   -0.0164    0.0089
          23    0.0078    0.0050    0.0025   -0.0008    0.0009   -0.0068    0.0007   -0.0007
          24   -0.0005   -0.0203   -0.0065   -0.0123   -0.0040    0.0014   -0.0250    0.0081
          25   -0.0027   -0.0064   -0.0005    0.0059   -0.0011    0.0041    0.0044    0.0001
          26    0.0060    0.0035    0.0004   -0.0071    0.0005   -0.0048   -0.0049   -0.0023
          27   -0.0116    0.0146    0.0014   -0.0076    0.0063   -0.0089   -0.0101   -0.0002
          28   -0.0026   -0.0045   -0.0000    0.0049    0.0001    0.0025    0.0027    0.0001
          29   -0.0034   -0.0034   -0.0038   -0.0011   -0.0033    0.0011    0.0013   -0.0013
          30   -0.0049    0.0056    0.0014   -0.0032    0.0002   -0.0021   -0.0032    0.0003
          31   -0.0112    0.0064   -0.0034    0.0016    0.0060   -0.0028   -0.0026   -0.0002
          32   -0.0091   -0.0038   -0.0004   -0.0008   -0.0049    0.0027    0.0027   -0.0010
          33   -0.0032    0.0032    0.0020   -0.0025   -0.0012   -0.0009   -0.0020    0.0003
          34    0.0123    0.0002    0.0057   -0.0018   -0.0008   -0.0011   -0.0027   -0.0006
          35   -0.0074   -0.0088   -0.0076    0.0033   -0.0043    0.0045    0.0059   -0.0016
          36   -0.0010   -0.0017   -0.0025    0.0006   -0.0026    0.0018    0.0017   -0.0005
          37   -0.0088    0.0185    0.0032    0.0036   -0.0015    0.0019   -0.0068    0.0056
          38   -0.0042    0.0081    0.0024   -0.0060    0.0067   -0.0042    0.0051   -0.0109
          39   -0.0321    0.0495    0.0116    0.0098    0.0123    0.0063    0.0144   -0.0099
          40    0.0141   -0.0198   -0.0040    0.0023   -0.0086    0.0031   -0.0111    0.0097
          41    0.0184   -0.0233   -0.0068   -0.0137   -0.0034   -0.0088   -0.0034   -0.0009
          42   -0.0249    0.0406    0.0089    0.0076    0.0090    0.0044    0.0122   -0.0069
          43   -0.0055   -0.0002   -0.0014    0.0026   -0.0043    0.0025   -0.0040    0.0055
          44    0.0116    0.0052    0.0016   -0.0066    0.0012   -0.0052   -0.0079   -0.0003
          45    0.0177   -0.0176   -0.0005    0.0415   -0.0058    0.0359    0.0520    0.0072
          46   -0.0133    0.0042    0.0011    0.0131   -0.0022    0.0100    0.0116    0.0045
          47    0.0313   -0.0442   -0.0061   -0.0108    0.0022   -0.0088   -0.0080   -0.0182
          48    0.0150   -0.0208   -0.0043   -0.0004   -0.0013    0.0012   -0.0020   -0.0030
          49   -0.0043   -0.0127   -0.0034    0.0039   -0.0029    0.0038    0.0037   -0.0019
          50    0.0029    0.0005    0.0008   -0.0073    0.0049   -0.0063    0.0029   -0.0102
          51    0.0349   -0.0526   -0.0094   -0.0035   -0.0032   -0.0010   -0.0101   -0.0090
          52   -0.0066    0.0049   -0.0011    0.0004   -0.0042    0.0015   -0.0036    0.0064
          53   -0.0045    0.0028    0.0007   -0.0050    0.0052   -0.0043    0.0095   -0.0104
          54   -0.0139    0.0301   -0.0001   -0.0090   -0.0018   -0.0036   -0.0003    0.0117
          55   -0.0160    0.0239   -0.0016   -0.0087   -0.0066   -0.0034   -0.0073    0.0163
          56   -0.0152    0.0273    0.0062   -0.0039    0.0087   -0.0046    0.0097   -0.0108
          57   -0.0035    0.0091    0.0001    0.0001    0.0005    0.0015    0.0034    0.0018
          58    0.0052    0.0092    0.0032    0.0012    0.0001    0.0016   -0.0106    0.0077
          59    0.0141    0.0139    0.0072   -0.0003    0.0074   -0.0008   -0.0093    0.0053
          60    0.0059   -0.0027    0.0010   -0.0006   -0.0031   -0.0019   -0.0218    0.0130
          61    0.0227    0.0234    0.0070   -0.0528    0.0718    0.1140   -0.0100    0.0138
          62    0.0043    0.0092    0.0056    0.0292   -0.0261   -0.0521    0.0075   -0.0036
          63   -0.0049   -0.0216   -0.0059    0.0094   -0.0286   -0.0387   -0.0263    0.0061
          64    0.0084    0.0235    0.0113    0.0232   -0.0124   -0.0263   -0.0232    0.0062
          65    0.0068    0.0086    0.0050    0.0120   -0.0107   -0.0282   -0.0043   -0.0027
          66    0.0115   -0.0220   -0.0106   -0.0788    0.0657    0.1161   -0.0235    0.0134
          67    0.0031    0.0169    0.0090    0.0384   -0.0341   -0.0588   -0.0209    0.0059
          68    0.0098   -0.0034   -0.0033   -0.0403    0.0365    0.0554    0.0052    0.0015
          69   -0.0094   -0.0263   -0.0072    0.0225   -0.0475   -0.0683   -0.0297    0.0049
          70    0.0017   -0.0050    0.0015    0.0047    0.0013    0.0019    0.0032   -0.0010
          71    0.0084    0.0036    0.0015   -0.0075    0.0019   -0.0059   -0.0051   -0.0031
          72   -0.0124    0.0162    0.0036   -0.0192    0.0056   -0.0144   -0.0214   -0.0015
          73   -0.0065   -0.0120   -0.0022    0.0102   -0.0024    0.0072    0.0077    0.0007
          74   -0.0066   -0.0075   -0.0065    0.0024   -0.0038    0.0034    0.0041   -0.0012
          75   -0.0041    0.0041    0.0037   -0.0032   -0.0016   -0.0009   -0.0024    0.0006
          76   -0.0115    0.0097   -0.0108   -0.0007    0.0029   -0.0022   -0.0024   -0.0002
          77   -0.0260   -0.0442    0.1451    0.0352    0.0687   -0.0227   -0.0148   -0.0016
          78    0.0026   -0.0071    0.0121    0.0022   -0.0008    0.0014    0.0008    0.0004
          79   -0.0011    0.0432   -0.1229   -0.0292   -0.0525    0.0163    0.0099    0.0002
          80   -0.0023    0.0176   -0.0775   -0.0198   -0.0453    0.0173    0.0130   -0.0006
          81   -0.0052    0.0010    0.0205    0.0012    0.0120   -0.0073   -0.0072    0.0000
          82   -0.0276   -0.0250    0.1192    0.0313    0.0709   -0.0266   -0.0195   -0.0007
          83   -0.0036    0.0136   -0.0629   -0.0162   -0.0379    0.0148    0.0113   -0.0007
          84   -0.0053    0.0134   -0.0259   -0.0099   -0.0160    0.0044    0.0018    0.0006
          85    0.0127    0.0012    0.0190   -0.0085   -0.0118    0.0025   -0.0004   -0.0004
          86   -0.0167   -0.0146   -0.0645    0.0338    0.0417   -0.0090   -0.0012   -0.0020
          87    0.0063   -0.0063   -0.1056    0.0487    0.0828   -0.0290   -0.0197   -0.0026
          88    0.0198   -0.0037   -0.0929    0.0443    0.0823   -0.0315   -0.0240   -0.0025
          89   -0.0049   -0.0121    0.0389   -0.0176   -0.0484    0.0223    0.0197   -0.0015
          90   -0.0026   -0.0010    0.0228   -0.0112   -0.0243    0.0098    0.0074   -0.0001
          91    0.0164    0.0071    0.0962   -0.0472   -0.0749    0.0230    0.0123    0.0006
          92   -0.0037   -0.0042   -0.0023   -0.0017   -0.0056    0.0023    0.0025   -0.0014
          93   -0.0038   -0.0038    0.0687   -0.0309   -0.0664    0.0272    0.0211    0.0002
          94    0.0128    0.0027    0.0008    0.0007    0.0005   -0.0035    0.0064    0.0004
          95    0.0038    0.0046    0.0015    0.0088   -0.0017    0.0037    0.0032    0.0102
          96    0.0348    0.0158    0.0046    0.0031    0.0014   -0.0066    0.0113   -0.0010
          97    0.0077   -0.0031   -0.0004   -0.0029    0.0012   -0.0037    0.0045   -0.0045
          98   -0.0005    0.0055    0.0014    0.0098   -0.0024    0.0037    0.0025    0.0124
          99    0.0023    0.0008    0.0004   -0.0039    0.0005   -0.0078    0.0041   -0.0067
         100    0.0047   -0.0073   -0.0013   -0.0070    0.0024   -0.0048    0.0036   -0.0103
         101   -0.0023    0.0005    0.0005    0.0061   -0.0022    0.0039   -0.0051    0.0114
         102    0.0008   -0.0031    0.0001   -0.0002   -0.0028    0.0002   -0.0184    0.0096
         103    0.0027   -0.0085   -0.0017   -0.0064    0.0016   -0.0049    0.0015   -0.0095
         104   -0.0038   -0.0036   -0.0004    0.0041   -0.0012    0.0035   -0.0013    0.0040
         105   -0.0043   -0.0090   -0.0017    0.0004   -0.0051   -0.0015   -0.0206    0.0086
         106    0.0047   -0.0026   -0.0005   -0.0023    0.0007   -0.0036    0.0034   -0.0027
         107   -0.0018   -0.0020   -0.0001    0.0042   -0.0004    0.0033    0.0031    0.0019
         108    0.0031    0.0014    0.0005    0.0009   -0.0015   -0.0024   -0.0045    0.0027
         109   -0.0010   -0.0007   -0.0004   -0.0014    0.0008   -0.0011    0.0022    0.0022
         110   -0.0051   -0.0034   -0.0004    0.0006    0.0027    0.0045    0.0082   -0.0078
         111   -0.0139    0.0037    0.0003   -0.0023    0.0029    0.0044    0.0000   -0.0001
         112   -0.0135   -0.0096   -0.0030   -0.0114    0.0047   -0.0081    0.0170   -0.0211
         113   -0.0233   -0.0027   -0.0009    0.0123   -0.0046    0.0137   -0.0077    0.0104
         114   -0.0132   -0.0032   -0.0016   -0.0145    0.0053   -0.0168    0.0224   -0.0249
         115    0.0113    0.0041    0.0011    0.0034   -0.0009   -0.0017    0.0026    0.0060
         116    0.0360    0.0200    0.0057    0.0142    0.0003    0.0043    0.0138    0.0136
         117    0.0573    0.0258    0.0073    0.0057    0.0033   -0.0066    0.0197   -0.0005
         118    0.0246    0.0102    0.0027    0.0023    0.0015   -0.0053    0.0136    0.0014
         119   -0.0258   -0.0088   -0.0022    0.0049   -0.0041    0.0021   -0.0052    0.0078
         120    0.0584    0.0261    0.0074    0.0062    0.0034   -0.0047    0.0176    0.0008
         121    0.0266    0.0026    0.0019    0.0044   -0.0014    0.0014   -0.0067    0.0111
         122    0.0124    0.0147    0.0034    0.0115   -0.0008   -0.0002    0.0173    0.0060
         123   -0.0124   -0.0052   -0.0015   -0.0086    0.0016   -0.0093    0.0060   -0.0135
         124    0.0032   -0.0121   -0.0024   -0.0098    0.0032   -0.0051    0.0041   -0.0162
         125   -0.0020    0.0026    0.0009    0.0075   -0.0025    0.0039   -0.0041    0.0133
         126    0.0055   -0.0015    0.0010    0.0008   -0.0034    0.0015   -0.0221    0.0139
         127   -0.0026   -0.0110   -0.0023   -0.0069    0.0015   -0.0043   -0.0003   -0.0117
         128   -0.0057   -0.0060   -0.0009    0.0028   -0.0007    0.0033   -0.0005    0.0001
         129   -0.0176   -0.0086   -0.0019    0.0031   -0.0068    0.0019   -0.0303    0.0134
         130   -0.0342   -0.0156   -0.0053   -0.0186    0.0079   -0.0089    0.0255   -0.0402
         131   -0.0333   -0.0167   -0.0051   -0.0196    0.0126   -0.0212    0.0412    0.1784
         132    0.0002    0.0054    0.0012    0.0025   -0.0036   -0.0013   -0.0024   -0.0893
         133   -0.0123   -0.0029   -0.0008    0.0140   -0.0089    0.0228   -0.0258   -0.1279
         134   -0.0230    0.0056    0.0014    0.0376   -0.0184    0.0446   -0.0489   -0.1256
         135   -0.0146    0.0014   -0.0007   -0.0087    0.0017   -0.0096    0.0154   -0.1053
         136   -0.0110   -0.0153   -0.0048   -0.0359    0.0180   -0.0390    0.0588    0.0921
         137   -0.0322   -0.0035   -0.0012    0.0207   -0.0094    0.0272   -0.0240   -0.0316
         138   -0.0374   -0.0200   -0.0069   -0.0454    0.0212   -0.0465    0.0686    0.1067


   Root No.      17        18        19        20        21        22        23        24

                17 A      18 A      19 A      20 A      21 A      22 A      23 A      24 A   

                 228.5     256.9     292.1     304.3     309.9     356.5     392.2     414.5
  
           1    0.0058   -0.0291    0.0016   -0.0091   -0.0021    0.0021   -0.0163   -0.0129
           2    0.0088    0.0115   -0.0094   -0.0162   -0.0037    0.0039   -0.0032   -0.0160
           3   -0.0249   -0.0140    0.0090   -0.0084   -0.0024   -0.0041   -0.0006   -0.0047
           4    0.0073   -0.0279    0.0010   -0.0089   -0.0021    0.0014   -0.0143   -0.0132
           5    0.0042   -0.0079    0.0010   -0.0024   -0.0008   -0.0036   -0.0021    0.0120
           6    0.0017    0.0011   -0.0051   -0.0011    0.0042   -0.0091    0.0085   -0.0124
           7    0.0028   -0.0191   -0.0071   -0.0114   -0.0045    0.0030    0.0044   -0.0050
           8    0.0064   -0.0112    0.0092   -0.0008   -0.0000   -0.0011   -0.0110    0.0077
           9    0.0219    0.0061    0.0104   -0.0054   -0.0081    0.0047   -0.0116   -0.0013
          10   -0.0038   -0.0013   -0.0062   -0.0070   -0.0036    0.0079    0.0136    0.0052
          11    0.0031   -0.0034    0.0101    0.0020    0.0014    0.0055   -0.0061    0.0108
          12    0.0003   -0.0056    0.0072   -0.0053   -0.0055    0.0135    0.0134    0.0078
          13   -0.0023   -0.0009   -0.0070   -0.0101   -0.0050    0.0104    0.0144    0.0037
          14   -0.0111    0.0088   -0.0073   -0.0170   -0.0033    0.0062   -0.0159   -0.0177
          15   -0.0204   -0.0091   -0.0024   -0.0036   -0.0012    0.0006    0.0020    0.0013
          16    0.0240    0.0016   -0.0023   -0.0028   -0.0015    0.0081   -0.0093   -0.0038
          17   -0.0002    0.0191   -0.0089   -0.0195   -0.0051    0.0071   -0.0021   -0.0175
          18    0.0205    0.0126    0.0021    0.0045    0.0010   -0.0037    0.0030    0.0032
          19    0.0001   -0.0095    0.0013   -0.0061   -0.0002   -0.0110   -0.0062   -0.0010
          20    0.0008    0.0020    0.0006   -0.0008   -0.0016   -0.0148    0.0041    0.0220
          21    0.0042    0.0076   -0.0146    0.0080    0.0068   -0.0066    0.0154   -0.0074
          22   -0.0160    0.0396    0.0043   -0.0088   -0.0042    0.0062    0.0006    0.0011
          23    0.0084   -0.0232   -0.0224    0.0121    0.0047   -0.0241    0.0077    0.0175
          24    0.0065    0.0044    0.0372   -0.0219   -0.0065   -0.0146   -0.0008    0.0111
          25   -0.0104    0.0099   -0.0077   -0.0021   -0.0020   -0.0096    0.0012    0.0181
          26    0.0047   -0.0096    0.0145    0.0021    0.0015    0.0157    0.0023    0.0045
          27    0.0082   -0.0059   -0.0003   -0.0052   -0.0001    0.0201    0.0157   -0.0107
          28   -0.0092    0.0085   -0.0051    0.0004   -0.0009   -0.0075    0.0034    0.0197
          29   -0.0034   -0.0021    0.0118    0.0061    0.0023    0.0185    0.0138    0.0054
          30    0.0009    0.0020   -0.0060   -0.0040   -0.0011   -0.0087   -0.0087    0.0093
          31   -0.0038    0.0099    0.0071    0.0184    0.0071   -0.0204   -0.0167    0.0005
          32   -0.0103    0.0096    0.0097    0.0198    0.0073   -0.0098   -0.0057   -0.0108
          33   -0.0008    0.0024   -0.0086   -0.0071   -0.0025   -0.0081   -0.0059    0.0138
          34   -0.0032   -0.0059    0.0295    0.0273    0.0100    0.0157    0.0132   -0.0069
          35   -0.0097    0.0064    0.0074    0.0084    0.0026    0.0084    0.0111    0.0057
          36   -0.0058    0.0066    0.0093    0.0184    0.0069   -0.0127   -0.0105   -0.0143
          37   -0.0152   -0.0499    0.0143   -0.0075   -0.0061    0.0058   -0.0271    0.0054
          38   -0.0119    0.0032   -0.0064   -0.0220   -0.0071    0.0077   -0.0085   -0.0180
          39   -0.0661   -0.0405    0.0213   -0.0153   -0.0096    0.0042   -0.0165    0.0041
          40    0.0212   -0.0242   -0.0085   -0.0060    0.0036   -0.0061   -0.0062   -0.0240
          41    0.0593    0.0483   -0.0255   -0.0070    0.0023   -0.0003    0.0111   -0.0248
          42   -0.0434   -0.0249    0.0172   -0.0115   -0.0063    0.0005   -0.0087    0.0027
          43    0.0007   -0.0199   -0.0076   -0.0111   -0.0038    0.0024    0.0053   -0.0051
          44    0.0108   -0.0191    0.0116   -0.0013    0.0010   -0.0041   -0.0243   -0.0017
          45    0.0531    0.0196    0.0223   -0.0061   -0.0150    0.0100   -0.0410   -0.0027
          46    0.0057   -0.0037    0.0021   -0.0098   -0.0080    0.0222    0.0370    0.0188
          47   -0.0563   -0.0069   -0.0209   -0.0304   -0.0050    0.0044   -0.0376   -0.0403
          48   -0.0211   -0.0076   -0.0044   -0.0034   -0.0004   -0.0025   -0.0047   -0.0030
          49   -0.0182    0.0050   -0.0204   -0.0204   -0.0067    0.0042    0.0059   -0.0144
          50   -0.0031    0.0165   -0.0086   -0.0189   -0.0044    0.0064   -0.0085   -0.0183
          51   -0.0600   -0.0228   -0.0150   -0.0118   -0.0006   -0.0063   -0.0269   -0.0200
          52    0.0166   -0.0028   -0.0022   -0.0048   -0.0021    0.0080   -0.0078   -0.0041
          53    0.0015    0.0358   -0.0134   -0.0172   -0.0057    0.0109    0.0129   -0.0065
          54    0.0819    0.0509    0.0014    0.0214    0.0056   -0.0031   -0.0079    0.0082
          55    0.0862    0.0422   -0.0030    0.0145    0.0031    0.0085   -0.0186    0.0027
          56   -0.0038    0.0136   -0.0030   -0.0231   -0.0059    0.0044   -0.0051   -0.0227
          57    0.0119    0.0072    0.0016    0.0024    0.0004   -0.0032    0.0038    0.0025
          58   -0.0005   -0.0072   -0.0018   -0.0042   -0.0034   -0.0097   -0.0054   -0.0006
          59   -0.0086    0.0300   -0.0008   -0.0012    0.0043   -0.0143    0.0112    0.0263
          60    0.0017    0.0092   -0.0219    0.0126   -0.0052   -0.0083    0.0161   -0.0043
          61   -0.0153    0.0306   -0.0340    0.0194   -0.0060    0.0145    0.0089   -0.0080
          62    0.0101   -0.0324   -0.0564    0.0294    0.0176   -0.0289    0.0206    0.0016
          63    0.0066    0.0063    0.0465   -0.0295   -0.0042   -0.0175   -0.0025    0.0124
          64   -0.0273    0.0766    0.0205   -0.0201   -0.0065    0.0192    0.0020    0.0049
          65    0.0003    0.0035   -0.0106    0.0041    0.0027   -0.0149    0.0087    0.0204
          66    0.0090   -0.0039    0.0387   -0.0166   -0.0165   -0.0087   -0.0079    0.0192
          67   -0.0187    0.0514    0.0270   -0.0252   -0.0028    0.0058   -0.0040    0.0065
          68    0.0202   -0.0597   -0.0221    0.0150   -0.0007   -0.0356   -0.0013    0.0204
          69    0.0079    0.0058    0.0705   -0.0447   -0.0067   -0.0206   -0.0116    0.0210
          70   -0.0091    0.0115   -0.0084   -0.0017   -0.0016   -0.0177   -0.0098    0.0207
          71    0.0049   -0.0076    0.0129    0.0019    0.0016    0.0101   -0.0049    0.0066
          72   -0.0029   -0.0182    0.0065   -0.0099   -0.0021    0.0409    0.0655    0.0126
          73   -0.0166    0.0161   -0.0159   -0.0040   -0.0032   -0.0186    0.0008    0.0282
          74   -0.0071    0.0018    0.0080    0.0050    0.0015    0.0158    0.0158    0.0078
          75   -0.0020    0.0050   -0.0113   -0.0058   -0.0020   -0.0177   -0.0145    0.0140
          76   -0.0039    0.0105    0.0085    0.0212    0.0083   -0.0232   -0.0207   -0.0022
          77    0.0008    0.0074    0.0169    0.0286    0.0105   -0.0192   -0.0158   -0.0196
          78   -0.0036   -0.0003   -0.0181   -0.0234   -0.0096    0.0075    0.0161    0.0310
          79   -0.0121    0.0143    0.0066    0.0222    0.0090   -0.0247   -0.0229   -0.0033
          80   -0.0197    0.0166    0.0061    0.0236    0.0086   -0.0199   -0.0115   -0.0169
          81    0.0066   -0.0045   -0.0036   -0.0094   -0.0029    0.0038   -0.0021    0.0192
          82    0.0079    0.0073    0.0176    0.0312    0.0122   -0.0307   -0.0315   -0.0112
          83   -0.0178    0.0156    0.0069    0.0231    0.0085   -0.0185   -0.0111   -0.0163
          84   -0.0063    0.0119   -0.0067    0.0084    0.0035   -0.0322   -0.0271   -0.0054
          85   -0.0036   -0.0062    0.0305    0.0283    0.0104    0.0173    0.0139   -0.0081
          86   -0.0102    0.0149   -0.0167   -0.0115   -0.0055   -0.0107    0.0019    0.0278
          87    0.0013   -0.0013    0.0320    0.0388    0.0147   -0.0034   -0.0061   -0.0363
          88    0.0049   -0.0147    0.0520    0.0468    0.0175    0.0267    0.0173   -0.0277
          89   -0.0185    0.0128    0.0205    0.0302    0.0106    0.0041    0.0086   -0.0193
          90   -0.0083    0.0091    0.0054    0.0160    0.0060   -0.0155   -0.0115   -0.0120
          91   -0.0055   -0.0092    0.0386    0.0345    0.0132    0.0271    0.0182   -0.0157
          92   -0.0047   -0.0010    0.0131    0.0079    0.0029    0.0201    0.0165    0.0061
          93   -0.0166    0.0172    0.0070    0.0256    0.0093   -0.0244   -0.0166   -0.0235
          94    0.0002   -0.0002   -0.0014    0.0006    0.0009   -0.0019    0.0031   -0.0009
          95   -0.0006   -0.0017   -0.0001    0.0038   -0.0227   -0.0018    0.0002   -0.0025
          96   -0.0027   -0.0020   -0.0035   -0.0027    0.0268    0.0071   -0.0056    0.0052
          97    0.0018    0.0019   -0.0033    0.0001    0.0055   -0.0059    0.0070   -0.0049
          98   -0.0012   -0.0036    0.0010    0.0042   -0.0271   -0.0035    0.0019   -0.0030
          99    0.0006   -0.0032   -0.0073    0.0022    0.0062   -0.0108    0.0135   -0.0172
         100    0.0029    0.0026   -0.0033   -0.0020    0.0135   -0.0092    0.0087   -0.0070
         101   -0.0003   -0.0008   -0.0004    0.0041   -0.0242   -0.0064    0.0040   -0.0018
         102   -0.0003   -0.0000   -0.0110    0.0038   -0.0026   -0.0132    0.0125   -0.0084
         103    0.0008    0.0037   -0.0089    0.0050    0.0105    0.0074   -0.0026    0.0013
         104    0.0000    0.0011   -0.0053    0.0065   -0.0150    0.0041   -0.0021   -0.0026
         105   -0.0042    0.0033   -0.0258    0.0224   -0.0084    0.0326   -0.0189    0.0097
         106    0.0008    0.0015   -0.0036    0.0033   -0.0021    0.0000    0.0029   -0.0023
         107    0.0011    0.0014   -0.0027    0.0033   -0.0091    0.0014   -0.0003   -0.0040
         108   -0.0020    0.0011   -0.0112    0.0086    0.0052    0.0195   -0.0129    0.0072
         109    0.0008   -0.0009    0.0008    0.0042   -0.0259   -0.0064    0.0051   -0.0077
         110    0.0022    0.0027    0.0019   -0.0075    0.0252   -0.0071    0.0077   -0.0012
         111   -0.0001   -0.0021    0.0052   -0.0048    0.0024   -0.0058    0.0022    0.0002
         112    0.0026    0.0023    0.0023   -0.0009    0.0075    0.0072   -0.0076    0.0137
         113    0.0003   -0.0042   -0.0047   -0.0081    0.0470    0.0051   -0.0031   -0.0017
         114    0.0008   -0.0031    0.0007    0.0059   -0.0179    0.0003   -0.0002    0.0008
         115   -0.0013    0.0002   -0.0021    0.0040   -0.0062    0.0086   -0.0063    0.0089
         116   -0.0033   -0.0027    0.0078   -0.0060    0.0021    0.0047   -0.0108    0.0154
         117   -0.0040   -0.0028    0.0024   -0.0107    0.0458    0.0075   -0.0098    0.0141
         118   -0.0008   -0.0036    0.0050   -0.0064    0.0081   -0.0129    0.0099   -0.0024
         119    0.0017   -0.0014   -0.0078    0.0125   -0.0422   -0.0069    0.0097   -0.0176
         120   -0.0044   -0.0018    0.0025   -0.0097    0.0443    0.0132   -0.0150    0.0190
         121    0.0005    0.0032   -0.0066   -0.0007    0.0086   -0.0097    0.0104   -0.0074
         122   -0.0028   -0.0051    0.0057    0.0048   -0.0319    0.0072   -0.0081    0.0059
         123    0.0016   -0.0033   -0.0066    0.0023    0.0065   -0.0104    0.0127   -0.0160
         124    0.0037    0.0048   -0.0067   -0.0005    0.0220   -0.0024    0.0051   -0.0059
         125   -0.0011   -0.0017    0.0002    0.0045   -0.0283   -0.0068    0.0044   -0.0022
         126    0.0031    0.0002   -0.0076   -0.0002    0.0016   -0.0213    0.0158   -0.0048
         127   -0.0030    0.0019   -0.0137    0.0110    0.0098    0.0243   -0.0169    0.0081
         128   -0.0010    0.0012   -0.0079    0.0086   -0.0105    0.0125   -0.0092    0.0001
         129   -0.0160   -0.0047   -0.0333    0.0363   -0.0249    0.0650   -0.0479    0.0277
         130    0.0032    0.0039    0.0089   -0.0030    0.0122    0.0228   -0.0248    0.0350
         131   -0.0142   -0.0012   -0.0064   -0.0170    0.0868    0.0089   -0.0032   -0.0062
         132    0.0068   -0.0051   -0.0014    0.0107   -0.0369   -0.0078    0.0070   -0.0059
         133    0.0129   -0.0003   -0.0027   -0.0038    0.0360    0.0052   -0.0048    0.0107
         134    0.0125   -0.0067   -0.0052   -0.0061    0.0466    0.0061   -0.0058    0.0045
         135    0.0065   -0.0036    0.0082    0.0148   -0.0680    0.0054   -0.0099    0.0179
         136   -0.0081    0.0044    0.0064    0.0023   -0.0218    0.0070   -0.0078    0.0135
         137    0.0045   -0.0050   -0.0072   -0.0135    0.0825    0.0100   -0.0068    0.0015
         138   -0.0108   -0.0004    0.0022   -0.0040    0.0268    0.0152   -0.0126    0.0106


   Root No.      25        26        27        28        29        30        31        32

                25 A      26 A      27 A      28 A      29 A      30 A      31 A      32 A   

                 442.9     468.2     476.8     479.0     495.8     512.6     536.0     553.8
  
[...]
 FREQUENCY          1411.32         C  3 -- H 15         +16.7% ( 44.3%)      0.4%
 TRANSITION DIPOLE   0.9588         C  8 -- H 22         +12.1% ( 37.8%)      0.2%
 TRAVEL (Ang.)       0.4701         C  7 -- H 20         +10.7% ( 35.5%)      0.0%
 REDUCED MASS        0.2162         C  8 -- H 21         +10.4% ( 35.0%)      0.9%
 EFFECTIVE MASS      3.0049
 FORCE CONSTANT      0.2537

 VIBRATION         99   99A           ATOM PAIR      ENERGY CONTRIBUTION    RADIAL
 FREQUENCY          1423.98         C  4 -- N  9         +17.2% ( 56.4%)     57.6%
 TRANSITION DIPOLE   1.8261         C  3 -- C  4         +17.0% ( 56.1%)     21.0%
 TRAVEL (Ang.)       0.1844         C  4 -- C  5         +13.5% ( 50.0%)     96.0%
 REDUCED MASS        1.3931         N  9 -- H 24         +11.2% ( 45.6%)      5.3%
 EFFECTIVE MASS      8.4167
 FORCE CONSTANT      1.6644

 VIBRATION        100  100A           ATOM PAIR      ENERGY CONTRIBUTION    RADIAL
 FREQUENCY          1460.51         C 34 -- C 35         +26.9% ( 77.0%)     97.5%
 TRANSITION DIPOLE   5.6471         C 35 -- C 36         +10.8% ( 48.7%)     24.9%
 TRAVEL (Ang.)       0.1420         C 35 -- H 43         +10.7% ( 48.6%)      9.7%
 REDUCED MASS        2.2891         C  7 -- C 34          +8.8% ( 44.0%)      4.2%
 EFFECTIVE MASS      9.7377
 FORCE CONSTANT      2.8769

 VIBRATION        101  101A           ATOM PAIR      ENERGY CONTRIBUTION    RADIAL
 FREQUENCY          1500.82         C  2 -- C  3         +22.4% ( 67.0%)     81.8%
 TRANSITION DIPOLE   2.9415         C  2 -- C  7         +15.2% ( 55.1%)     41.8%
 TRAVEL (Ang.)       0.1510         C  1 -- C  2         +13.6% ( 52.2%)     97.4%
 REDUCED MASS        1.9707         C  3 -- C  4          +6.8% ( 36.8%)     68.3%
 EFFECTIVE MASS      9.7388
 FORCE CONSTANT      2.6154

 VIBRATION        102  102A           ATOM PAIR      ENERGY CONTRIBUTION    RADIAL
 FREQUENCY          1571.21         N  9 -- H 24         +21.3% ( 62.4%)      0.4%
 TRANSITION DIPOLE   4.2208         C  2 -- C  7         +11.4% ( 45.6%)     93.5%
 TRAVEL (Ang.)       0.2218         C  2 -- C  3         +11.1% ( 45.0%)     72.3%
 REDUCED MASS        0.8724         C  4 -- N  9          +9.0% ( 40.5%)     89.1%
 EFFECTIVE MASS      8.0431
 FORCE CONSTANT      1.2688

 VIBRATION        103  103A           ATOM PAIR      ENERGY CONTRIBUTION    RADIAL
 FREQUENCY          1608.82         C  2 -- C  7         +16.1% ( 56.3%)     85.9%
 TRANSITION DIPOLE   1.4464         C  2 -- C  3         +15.2% ( 54.7%)     82.1%
 TRAVEL (Ang.)       0.1476         N  9 -- H 24         +14.1% ( 52.6%)      1.6%
 REDUCED MASS        1.9240         C  4 -- N  9         +13.9% ( 52.4%)     92.9%
 EFFECTIVE MASS     10.3650
 FORCE CONSTANT      2.9340

 VIBRATION        104  104A           ATOM PAIR      ENERGY CONTRIBUTION    RADIAL
 FREQUENCY          1702.27         C  3 -- C  4         +36.6% ( 85.3%)     98.9%
 TRANSITION DIPOLE   7.3223         C  4 -- N  9         +20.7% ( 64.2%)     50.7%
 TRAVEL (Ang.)       0.0959         C  4 -- C  5         +18.5% ( 60.6%)     13.8%
 REDUCED MASS        4.3081         C  2 -- C  3          +7.1% ( 37.6%)     26.5%
 EFFECTIVE MASS     10.4433
 FORCE CONSTANT      7.3553

 VIBRATION        105  105A           ATOM PAIR      ENERGY CONTRIBUTION    RADIAL
 FREQUENCY          1850.30         C 36 -- O 37         +48.9% ( 96.7%)     99.4%
 TRANSITION DIPOLE   8.3425         C 35 -- C 36         +25.0% ( 69.0%)     65.1%
 TRAVEL (Ang.)       0.0745         C 32 -- C 36         +23.3% ( 66.8%)     17.9%
 REDUCED MASS        6.5718         C  3 -- C  4          +0.5% (  9.3%)     91.1%
 EFFECTIVE MASS     13.1366
 FORCE CONSTANT     13.2563

 VIBRATION        106  106A           ATOM PAIR      ENERGY CONTRIBUTION    RADIAL
 FREQUENCY          2593.04         C  1 -- H 13         +79.8% ( 91.7%)     99.8%
 TRANSITION DIPOLE   0.3967         C  1 -- H 14         +17.5% ( 43.0%)     91.5%
 TRAVEL (Ang.)       0.1958         C  6 -- H 19          +0.9% (  9.5%)     97.7%
 REDUCED MASS        0.6784         C  1 -- C  6          +0.8% (  9.2%)      0.4%
 EFFECTIVE MASS      1.3913
 FORCE CONSTANT      2.6877

 VIBRATION        107  107A           ATOM PAIR      ENERGY CONTRIBUTION    RADIAL
 FREQUENCY          2649.95         C  8 -- H 23         +60.7% ( 80.4%)     99.5%
 TRANSITION DIPOLE   0.3559         C  8 -- H 22         +22.2% ( 48.6%)     92.6%
 TRAVEL (Ang.)       0.2419         C  5 -- H 16          +4.1% ( 21.0%)     98.9%
 REDUCED MASS        0.4349         C  8 -- H 21          +3.9% ( 20.4%)     56.5%
 EFFECTIVE MASS      1.4339
 FORCE CONSTANT      1.7992

 VIBRATION        108  108A           ATOM PAIR      ENERGY CONTRIBUTION    RADIAL
 FREQUENCY          2650.27         C  5 -- H 16         +35.2% ( 61.4%)     98.8%
 TRANSITION DIPOLE   0.4331         C  5 -- H 17         +21.9% ( 48.4%)     97.4%
 TRAVEL (Ang.)       0.3301         C  6 -- H 19         +19.7% ( 45.9%)     98.8%
 REDUCED MASS        0.2334         C  6 -- H 18         +11.0% ( 34.3%)     97.3%
 EFFECTIVE MASS      1.4112
 FORCE CONSTANT      0.9660

 VIBRATION        109  109A           ATOM PAIR      ENERGY CONTRIBUTION    RADIAL
 FREQUENCY          2657.10         C 10 -- H 25         +60.0% ( 79.2%)    100.0%
 TRANSITION DIPOLE   0.2682         C 11 -- H 27         +12.6% ( 36.3%)     97.9%
 TRAVEL (Ang.)       0.2511         C 12 -- H 31         +10.8% ( 33.6%)     98.7%
 REDUCED MASS        0.4023         C 11 -- H 28          +9.1% ( 30.9%)     97.3%
 EFFECTIVE MASS      1.3487
 FORCE CONSTANT      1.6737

 VIBRATION        110  110A           ATOM PAIR      ENERGY CONTRIBUTION    RADIAL
 FREQUENCY          2665.06         C 38 -- H 44         +47.0% ( 70.6%)     99.2%
 TRANSITION DIPOLE   0.2403         C 33 -- H 41         +21.7% ( 48.0%)    100.0%
 TRAVEL (Ang.)       0.2821         C 38 -- H 45         +20.6% ( 46.8%)     94.1%
 REDUCED MASS        0.3178         C 38 -- H 46          +3.3% ( 18.8%)     58.1%
 EFFECTIVE MASS      1.3990
 FORCE CONSTANT      1.3301

 VIBRATION        111  111A           ATOM PAIR      ENERGY CONTRIBUTION    RADIAL
 FREQUENCY          2665.49         C  6 -- H 19         +30.5% ( 56.9%)     98.3%
 TRANSITION DIPOLE   0.6640         C  6 -- H 18         +29.1% ( 55.5%)     97.8%
 TRAVEL (Ang.)       0.3234         C  5 -- H 17         +17.4% ( 43.0%)     97.9%
 REDUCED MASS        0.2418         C  5 -- H 16         +16.0% ( 41.2%)     98.3%
 EFFECTIVE MASS      1.4427
 FORCE CONSTANT      1.0123

 VIBRATION        112  112A           ATOM PAIR      ENERGY CONTRIBUTION    RADIAL
 FREQUENCY          2667.07         C 11 -- H 28         +56.0% ( 77.1%)     99.5%
 TRANSITION DIPOLE   0.5960         C 11 -- H 26         +18.6% ( 44.5%)     91.0%
 TRAVEL (Ang.)       0.2608         C 11 -- H 27          +5.9% ( 25.1%)     69.0%
 REDUCED MASS        0.3718         C 12 -- H 30          +5.4% ( 23.9%)     98.3%
 EFFECTIVE MASS      1.4464
 FORCE CONSTANT      1.5584

 VIBRATION        113  113A           ATOM PAIR      ENERGY CONTRIBUTION    RADIAL
 FREQUENCY          2671.33         C 12 -- H 29         +55.6% ( 77.0%)     99.4%
 TRANSITION DIPOLE   0.5378         C 12 -- H 30         +23.6% ( 50.2%)     92.3%
 TRAVEL (Ang.)       0.2540         C 12 -- H 31          +8.1% ( 29.3%)     73.1%
 REDUCED MASS        0.3913         C 11 -- H 27          +7.0% ( 27.3%)     99.3%
 EFFECTIVE MASS      1.4561
 FORCE CONSTANT      1.6451

 VIBRATION        114  114A           ATOM PAIR      ENERGY CONTRIBUTION    RADIAL
 FREQUENCY          2674.04         C  8 -- H 21         +54.0% ( 75.7%)     99.0%
 TRANSITION DIPOLE   0.4410         C  8 -- H 22         +34.3% ( 60.4%)     95.7%
 TRAVEL (Ang.)       0.2430         C  8 -- H 23          +4.2% ( 21.2%)     55.1%
 REDUCED MASS        0.4269         C 33 -- H 41          +2.6% ( 16.5%)    100.0%
 EFFECTIVE MASS      1.4477
 FORCE CONSTANT      1.7984

 VIBRATION        115  115A           ATOM PAIR      ENERGY CONTRIBUTION    RADIAL
 FREQUENCY          2675.56         C 12 -- H 30         +30.6% ( 57.1%)     98.7%
 TRANSITION DIPOLE   0.5844         C 11 -- H 26         +25.7% ( 52.3%)     99.0%
 TRAVEL (Ang.)       0.3207         C 12 -- H 31         +21.8% ( 48.2%)     96.7%
 REDUCED MASS        0.2450         C 11 -- H 27         +16.8% ( 42.3%)     95.5%
 EFFECTIVE MASS      1.4593
 FORCE CONSTANT      1.0333

 VIBRATION        116  116A           ATOM PAIR      ENERGY CONTRIBUTION    RADIAL
 FREQUENCY          2679.78         C 38 -- H 45         +39.7% ( 64.8%)     98.4%
 TRANSITION DIPOLE   0.4408         C 38 -- H 46         +31.4% ( 57.7%)     97.1%
 TRAVEL (Ang.)       0.2954         C 33 -- H 41          +9.5% ( 31.7%)     99.8%
 REDUCED MASS        0.2883         C 32 -- H 40          +8.5% ( 30.1%)     97.8%
 EFFECTIVE MASS      1.4362
 FORCE CONSTANT      1.2199

 VIBRATION        117  117A           ATOM PAIR      ENERGY CONTRIBUTION    RADIAL
 FREQUENCY          2681.26         C 38 -- H 46         +27.6% ( 54.1%)     99.0%
 TRANSITION DIPOLE   0.2794         C 32 -- H 40         +21.4% ( 47.7%)     98.3%
 TRAVEL (Ang.)       0.3582         C 32 -- H 39         +18.4% ( 44.2%)     98.1%
 REDUCED MASS        0.1960         C 38 -- H 44         +14.8% ( 39.7%)     95.1%
 EFFECTIVE MASS      1.4305         C 33 -- H 41         +10.7% ( 33.8%)    100.0%
 FORCE CONSTANT      0.8300

 VIBRATION        118  118A           ATOM PAIR      ENERGY CONTRIBUTION    RADIAL
 FREQUENCY          2686.65         C 10 -- H 25         +28.2% ( 54.2%)    100.0%
 TRANSITION DIPOLE   0.8312         C 11 -- H 27         +21.1% ( 46.9%)     99.0%
 TRAVEL (Ang.)       0.3547         C 12 -- H 31         +19.2% ( 44.8%)     99.7%
 REDUCED MASS        0.1995         C 11 -- H 26         +16.0% ( 40.9%)     95.6%
 EFFECTIVE MASS      1.4407
 FORCE CONSTANT      0.8485

 VIBRATION        119  119A           ATOM PAIR      ENERGY CONTRIBUTION    RADIAL
 FREQUENCY          2699.12         C 33 -- H 41         +45.5% ( 68.5%)    100.0%
 TRANSITION DIPOLE   0.8146         C 32 -- H 39         +19.9% ( 45.3%)     97.8%
 TRAVEL (Ang.)       0.2952         C 32 -- H 40         +17.2% ( 42.1%)     98.2%
 REDUCED MASS        0.2867         C 34 -- H 42          +6.3% ( 25.5%)     99.6%
 EFFECTIVE MASS      1.4045
 FORCE CONSTANT      1.2306

 VIBRATION        120  120A           ATOM PAIR      ENERGY CONTRIBUTION    RADIAL
 FREQUENCY          2709.63         C 34 -- H 42         +84.2% ( 93.0%)    100.0%
 TRANSITION DIPOLE   0.4289         C  7 -- H 20          +6.1% ( 25.0%)     99.8%
 TRAVEL (Ang.)       0.1879         C 33 -- H 41          +4.9% ( 22.4%)     99.7%
 REDUCED MASS        0.7045         C  7 -- C 34          +0.9% (  9.6%)      0.1%
 EFFECTIVE MASS      1.3734
 FORCE CONSTANT      3.0476

 VIBRATION        121  121A           ATOM PAIR      ENERGY CONTRIBUTION    RADIAL
 FREQUENCY          2713.60         C  1 -- H 14         +81.0% ( 89.1%)     99.3%
 TRANSITION DIPOLE   0.7370         C  1 -- H 13         +14.0% ( 37.1%)     82.6%
 TRAVEL (Ang.)       0.1964         C  6 -- H 18          +2.7% ( 16.3%)     97.3%
 REDUCED MASS        0.6442         C  5 -- H 17          +0.6% (  7.7%)     99.5%
 EFFECTIVE MASS      1.2708
 FORCE CONSTANT      2.7947

 VIBRATION        122  122A           ATOM PAIR      ENERGY CONTRIBUTION    RADIAL
 FREQUENCY          2719.45         C  7 -- H 20         +87.6% ( 94.5%)     99.9%
 TRANSITION DIPOLE   0.7546         C 34 -- H 42          +6.2% ( 25.2%)     99.3%
 TRAVEL (Ang.)       0.1812         C  8 -- H 22          +2.1% ( 14.8%)     97.4%
 REDUCED MASS        0.7553         C  7 -- C 34          +0.8% (  9.0%)      0.5%
 EFFECTIVE MASS      1.3503
 FORCE CONSTANT      3.2909

 VIBRATION        123  123A           ATOM PAIR      ENERGY CONTRIBUTION    RADIAL
 FREQUENCY          2735.87         C  5 -- H 17         +55.1% ( 73.1%)     97.6%
 TRANSITION DIPOLE   0.7174         C  5 -- H 16         +39.3% ( 61.7%)     95.1%
 TRAVEL (Ang.)       0.2339         C  6 -- H 18          +3.5% ( 18.5%)     98.4%
 REDUCED MASS        0.4506         C  5 -- C  6          +0.5% (  6.9%)     37.3%
 EFFECTIVE MASS      1.2347
 FORCE CONSTANT      1.9874

 VIBRATION        124  124A           ATOM PAIR      ENERGY CONTRIBUTION    RADIAL
 FREQUENCY          2741.01         C  6 -- H 18         +50.7% ( 70.1%)     96.8%
 TRANSITION DIPOLE   0.4790         C  6 -- H 19         +43.5% ( 64.9%)     95.8%
 TRAVEL (Ang.)       0.2363         C  5 -- H 16          +2.7% ( 16.2%)     96.0%
 REDUCED MASS        0.4407         C  1 -- H 14          +1.0% (  9.9%)     94.1%
 EFFECTIVE MASS      1.2564
 FORCE CONSTANT      1.9508

 VIBRATION        125  125A           ATOM PAIR      ENERGY CONTRIBUTION    RADIAL
 FREQUENCY          2762.58         C  3 -- H 15         +89.8% ( 95.3%)    100.0%
 TRANSITION DIPOLE   0.6488         C 32 -- H 39          +3.9% ( 19.7%)     96.6%
 TRAVEL (Ang.)       0.1773         C 32 -- H 40          +3.8% ( 19.7%)     96.6%
 REDUCED MASS        0.7768         C  2 -- C  3          +0.9% (  9.3%)     13.2%
 EFFECTIVE MASS      1.3527
 FORCE CONSTANT      3.4928

 VIBRATION        126  126A           ATOM PAIR      ENERGY CONTRIBUTION    RADIAL
 FREQUENCY          2763.34         C 32 -- H 39         +45.4% ( 66.4%)     96.7%
 TRANSITION DIPOLE   0.7722         C 32 -- H 40         +44.6% ( 65.8%)     96.5%
 TRAVEL (Ang.)       0.2445         C  3 -- H 15          +8.2% ( 28.2%)    100.0%
 REDUCED MASS        0.4082         C 32 -- C 36          +0.5% (  6.9%)     16.4%
 EFFECTIVE MASS      1.2532
 FORCE CONSTANT      1.8365

 VIBRATION        127  127A           ATOM PAIR      ENERGY CONTRIBUTION    RADIAL
 FREQUENCY          2771.61         C  8 -- H 21         +36.4% ( 58.0%)     96.2%
 TRANSITION DIPOLE   0.3882         C  8 -- H 22         +34.0% ( 56.0%)     96.0%
 TRAVEL (Ang.)       0.2840         C  8 -- H 23         +24.1% ( 47.2%)     93.5%
 REDUCED MASS        0.3016         C 38 -- H 46          +1.8% ( 12.7%)     96.6%
 EFFECTIVE MASS      1.1443
 FORCE CONSTANT      1.3652

 VIBRATION        128  128A           ATOM PAIR      ENERGY CONTRIBUTION    RADIAL
 FREQUENCY          2779.17         C 11 -- H 27         +23.7% ( 46.7%)     96.3%
 TRANSITION DIPOLE   0.4587         C 11 -- H 26         +22.7% ( 45.7%)     96.0%
 TRAVEL (Ang.)       0.3693         C 11 -- H 28         +18.1% ( 40.8%)     94.3%
 REDUCED MASS        0.1779         C 12 -- H 31         +11.8% ( 33.0%)     96.0%
 EFFECTIVE MASS      1.1337         C 12 -- H 30         +11.7% ( 32.8%)     95.5%
 FORCE CONSTANT      0.8095         C 12 -- H 29         +11.4% ( 32.4%)     95.8%

 VIBRATION        129  129A           ATOM PAIR      ENERGY CONTRIBUTION    RADIAL
 FREQUENCY          2779.87         C 38 -- H 46         +33.3% ( 55.4%)     96.0%
 TRANSITION DIPOLE   0.3516         C 38 -- H 45         +31.9% ( 54.2%)     95.8%
 TRAVEL (Ang.)       0.2866         C 38 -- H 44         +29.4% ( 52.1%)     95.5%
 REDUCED MASS        0.2953         C  8 -- H 22          +2.0% ( 13.6%)     97.7%
 EFFECTIVE MASS      1.1350
 FORCE CONSTANT      1.3446

 VIBRATION        130  130A           ATOM PAIR      ENERGY CONTRIBUTION    RADIAL
 FREQUENCY          2782.04         C 12 -- H 31         +22.1% ( 45.1%)     95.6%
 TRANSITION DIPOLE   0.4620         C 12 -- H 29         +21.9% ( 44.9%)     95.6%
 TRAVEL (Ang.)       0.3731         C 12 -- H 30         +19.9% ( 42.8%)     95.0%
 REDUCED MASS        0.1741         C 11 -- H 27         +12.7% ( 34.3%)     96.0%
 EFFECTIVE MASS      1.1440         C 11 -- H 26         +12.5% ( 34.0%)     95.8%
 FORCE CONSTANT      0.7938

 VIBRATION        131  131A           ATOM PAIR      ENERGY CONTRIBUTION    RADIAL
 FREQUENCY          2798.82         N  9 -- H 24         +95.8% ( 98.3%)    100.0%
 TRANSITION DIPOLE   1.5408         N  9 -- C 10          +0.7% (  8.5%)     16.9%
 TRAVEL (Ang.)       0.1649         C  4 -- N  9          +0.7% (  8.3%)     19.8%
 REDUCED MASS        0.8860         C 10 -- H 25          +0.6% (  7.8%)     97.8%
 EFFECTIVE MASS      1.3701
 FORCE CONSTANT      4.0891

 VIBRATION        132  132A           ATOM PAIR      ENERGY CONTRIBUTION    RADIAL
 FREQUENCY          2818.15         C 35 -- H 43         +97.3% ( 99.7%)    100.0%
 TRANSITION DIPOLE   0.7120         C 34 -- C 35          +1.1% ( 10.6%)     32.6%
 TRAVEL (Ang.)       0.1612         C 35 -- C 36          +1.1% ( 10.6%)     25.3%
 REDUCED MASS        0.9207         N  9 -- H 24          +0.4% (  6.5%)     99.8%
 EFFECTIVE MASS      1.4004
 FORCE CONSTANT      4.3084

           FORCE CONSTANT IN CARTESIAN COORDINATES (Millidynes/A)

    ATOM   CHEMICAL       X               Y               Z
   NUMBER   SYMBOL  FORCE CONSTANT  FORCE CONSTANT  FORCE CONSTANT

      1       C        7.510862        6.955909        6.146229
      2       C       10.015904       11.420833        3.176127
      3       C        9.058780       12.187056        2.204317
      4       C       10.133715       13.485086        2.724225
      5       C        7.203674        7.052142        6.312600
      6       C        6.906751        7.016442        6.621249
      7       C        7.624181        9.467353        1.782762
      8       C        6.485372        6.921015        6.355279
      9       N        9.705472       10.912550        1.072403
     10       C        7.296601        7.568645        6.950285
     11       C        6.521996        6.390024        6.602498
     12       C        6.489673        6.682087        6.470854
     13       H        1.230215        2.494346        1.624202
     14       H        1.189144        0.874288        3.392739
     15       H        4.260485        1.039570        0.348794
     16       H        0.981930        0.666941        3.847805
     17       H        1.356339        3.251191        0.996620
     18       H        4.066422        0.852948        0.692422
     19       H        0.700842        0.892615        4.014078
     20       H        3.895531        0.942602        0.933378
     21       H        0.943426        0.770625        3.716717
     22       H        1.830322        2.991281        0.586501
     23       H        2.819401        0.934225        1.646823
     24       H        2.113204        3.606759        0.141099
     25       H        1.611622        2.652260        1.519806
     26       H        3.982867        0.559266        0.869530
     27       H        1.170237        2.583990        1.680256
     28       H        0.963863        3.028359        1.400228
     29       H        4.034649        0.757432        0.609425
     30       H        0.763972        0.742883        3.917472
     31       H        1.153054        2.974209        1.303300
     32       C        6.063862        7.317897        6.293617
     33       C        7.789145        6.457253        6.784465
     34       C        8.934602        7.160272        1.868214
     35       C        9.237645        9.338699        3.733605
     36       C       11.439314       10.605395        4.679829
     37       O        8.681292        4.158820        1.998273
     38       C        6.585382        6.444215        6.751991
     39       H        1.050988        1.743787        2.764409
     40       H        0.758201        2.212514        2.596207
     41       H        1.571309        1.065609        3.175917
     42       H        1.428523        3.435449        0.919100
     43       H        2.616410        2.405401        0.544688
     44       H        1.156594        1.074612        3.200965
     45       H        2.002922        2.299906        1.135724
     46       H        1.817103        2.770283        0.863371

 **********************
 *                    *
 * JOB ENDED NORMALLY *
 *                    *
 **********************



 TOTAL JOB TIME:            10.84 SECONDS

 == MOPAC DONE ==
