 *******************************************************************************
 ** Site#: 36969        For non-commercial use only    Version 21.051W 64BITS **
 *******************************************************************************
 ** Cite this program as: MOPAC2016, Version: 21.051W, James J. P. Stewart,   **
 ** Stewart Computational Chemistry, web: HTTP://OpenMOPAC.net. Days left: 272**
 *******************************************************************************
 **                                                                           **
 **                                MOPAC2016                                  **
 **                                                                           **
 *******************************************************************************

                              PM7 CALCULATION RESULTS

 *******************************************************************************
 *  CALCULATION DONE:                                Mon May 24 18:09:53 2021  *
 *  PM7        - The PM7 Hamiltonian to be used
 *  1SCF       - DO 1 SCF AND THEN STOP 
 *  T=         - A TIME OF 172800.0 SECONDS REQUESTED
 *  DUMP=N     - RESTART FILE WRITTEN EVERY 7200.0 SECONDS REQUESTED
 *  RELSCF     - DEFAULT SCF CRITERION MULTIPLIED BY 0.0001
 *              (DEFAULT SCF CRITERION = 0.00010)
 *  GRADIENTS  - ALL GRADIENTS TO BE PRINTED
 *******************************************************************************
PM7 1SCF GRADIENTS RELSCF=0.0001
 Title: ASE calculation

   ATOM   CHEMICAL          X               Y               Z
  NUMBER   SYMBOL      (ANGSTROMS)     (ANGSTROMS)     (ANGSTROMS)
 
     1       C          0.64092446  *   1.20209440  *  -0.06383258  *
     2       H          1.13429822  *   2.14005789  *  -0.01539223  *
     3       C         -0.67494873  *   1.04467353  *   0.25767080  *
     4       H         -1.27030997  *   2.09144222  *   0.27765524  *
     5       H         -1.39184931  *   0.35873992  *  -0.13175455  *
     6       C          1.36003142  *  -0.04972214  *  -0.06395587  *
     7       H          2.41913561  *  -0.09605666  *  -0.01543398  *
     8       C          0.56277796  *  -1.10816581  *   0.25781039  *
     9       H         -0.39100624  *  -1.38656090  *  -0.12877834  *
    10       H          1.17152631  *  -2.14727855  *   0.27766209  *
 


          CARTESIAN COORDINATES 

    NO.       ATOM           X           Y           Z

     1         C          0.6409      1.2021     -0.0638
     2         H          1.1343      2.1401     -0.0154
     3         C         -0.6749      1.0447      0.2577
     4         H         -1.2703      2.0914      0.2777
     5         H         -1.3918      0.3587     -0.1318
     6         C          1.3600     -0.0497     -0.0640
     7         H          2.4191     -0.0961     -0.0154
     8         C          0.5628     -1.1082      0.2578
     9         H         -0.3910     -1.3866     -0.1288
    10         H          1.1715     -2.1473      0.2777

 General Reference for PM7:
 "Optimization of Parameters for Semiempirical Methods VI: More Modifications to the 
 NDDO Approximations and Re-optimization of Parameters", J. J. P. Stewart, J. Mol. Mod., 1:32, 19 (2013)
 https://link.springer.com/article/10.1007/s00894-012-1667-x

           Empirical Formula: C4 H6  =    10 atoms



      MOLECULAR POINT GROUP   :   Cs  


      RHF CALCULATION, NO. OF DOUBLY OCCUPIED LEVELS = 11

  SCF CRITERION =    0.1000E-07

 -------------------------------------------------------------------------------
 PM7 1SCF GRADIENTS RELSCF=0.0001
 Title: ASE calculation



     1SCF WAS SPECIFIED, SO BFGS WAS NOT USED                 
     SCF FIELD WAS ACHIEVED                                   


                              PM7 CALCULATION
                                                       MOPAC2016 (Version: 21.051W)
                                                       Mon May 24 18:09:53 2021
                                                       No. of days remaining = 272




          FINAL HEAT OF FORMATION =         73.88932 KCAL/MOL =     309.15291 KJ/MOL


          TOTAL ENERGY            =       -569.16499 EV
          ELECTRONIC ENERGY       =      -1922.85363 EV  POINT GROUP:     Cs  
          CORE-CORE REPULSION     =       1353.68864 EV
          COSMO AREA              =        103.52 SQUARE ANGSTROMS
          COSMO VOLUME            =         88.34 CUBIC ANGSTROMS

          GRADIENT NORM           =        240.35583 = 76.00719 PER ATOM
          IONIZATION POTENTIAL    =          9.148723 EV
          HOMO LUMO ENERGIES (EV) =         -9.149 -0.061
          NO. OF FILLED LEVELS    =         11
          MOLECULAR WEIGHT        =         54.0914

          MOLECULAR DIMENSIONS (Angstroms)

            Atom       Atom       Distance
            H    10    H     4     4.89176
            H     9    H     2     3.08416
            H     4    C     6     0.38588


          SCF CALCULATIONS        =          1
 
          WALL-CLOCK TIME         =          0.016 SECONDS
          COMPUTATION TIME        =          0.016 SECONDS

          LARGEST ATOMIC GRADIENTS

          Atom     Label                     Cartesian Gradients           Cartesian Coordinates       |Gradient|
                                           X          Y          Z        X          Y          Z

             3       C                  22.538   -124.020     73.382   -0.67495    1.04467    0.25767    145.855
             8       C                 -95.953     81.851     73.226    0.56278   -1.10817    0.25781    145.837
             1       C                  41.664     19.974    -36.371    0.64092    1.20209   -0.06383     58.801
             6       C                  38.116     25.942    -36.321    1.36003   -0.04972   -0.06396     58.694
             4       H                 -23.064     47.655    -15.618   -1.27031    2.09144    0.27766     55.199
            10       H                  29.828    -43.588    -15.587    1.17153   -2.14728    0.27766     55.069
             5       H                  -4.987     17.721    -24.836   -1.39185    0.35874   -0.13175     30.915
             9       H                  12.520    -13.495    -24.812   -0.39101   -1.38656   -0.12878     30.895
             2       H                  -8.554     -9.193      3.436    1.13430    2.14006   -0.01539     13.019
             7       H                 -12.107     -2.847      3.501    2.41914   -0.09606   -0.01543     12.920



       FINAL  POINT  AND  DERIVATIVES

   PARAMETER     ATOM    TYPE            VALUE        GRADIENT
      1          1  C    CARTESIAN X     0.640924     41.663556  KCAL/ANGSTROM
      2          1  C    CARTESIAN Y     1.202094     19.973506  KCAL/ANGSTROM
      3          1  C    CARTESIAN Z    -0.063833    -36.370543  KCAL/ANGSTROM
      4          2  H    CARTESIAN X     1.134298     -8.554400  KCAL/ANGSTROM
      5          2  H    CARTESIAN Y     2.140058     -9.192537  KCAL/ANGSTROM
      6          2  H    CARTESIAN Z    -0.015392      3.435721  KCAL/ANGSTROM
      7          3  C    CARTESIAN X    -0.674949     22.537635  KCAL/ANGSTROM
      8          3  C    CARTESIAN Y     1.044674   -124.019783  KCAL/ANGSTROM
      9          3  C    CARTESIAN Z     0.257671     73.381605  KCAL/ANGSTROM
     10          4  H    CARTESIAN X    -1.270310    -23.064340  KCAL/ANGSTROM
     11          4  H    CARTESIAN Y     2.091442     47.654971  KCAL/ANGSTROM
     12          4  H    CARTESIAN Z     0.277655    -15.618225  KCAL/ANGSTROM
     13          5  H    CARTESIAN X    -1.391849     -4.986988  KCAL/ANGSTROM
     14          5  H    CARTESIAN Y     0.358740     17.720884  KCAL/ANGSTROM
     15          5  H    CARTESIAN Z    -0.131755    -24.836256  KCAL/ANGSTROM
     16          6  C    CARTESIAN X     1.360031     38.116209  KCAL/ANGSTROM
     17          6  C    CARTESIAN Y    -0.049722     25.941798  KCAL/ANGSTROM
     18          6  C    CARTESIAN Z    -0.063956    -36.320509  KCAL/ANGSTROM
     19          7  H    CARTESIAN X     2.419136    -12.106703  KCAL/ANGSTROM
     20          7  H    CARTESIAN Y    -0.096057     -2.846574  KCAL/ANGSTROM
     21          7  H    CARTESIAN Z    -0.015434      3.501105  KCAL/ANGSTROM
     22          8  C    CARTESIAN X     0.562778    -95.952872  KCAL/ANGSTROM
     23          8  C    CARTESIAN Y    -1.108166     81.850678  KCAL/ANGSTROM
     24          8  C    CARTESIAN Z     0.257810     73.225737  KCAL/ANGSTROM
     25          9  H    CARTESIAN X    -0.391006     12.520087  KCAL/ANGSTROM
     26          9  H    CARTESIAN Y    -1.386561    -13.494926  KCAL/ANGSTROM
     27          9  H    CARTESIAN Z    -0.128778    -24.812059  KCAL/ANGSTROM
     28         10  H    CARTESIAN X     1.171526     29.827813  KCAL/ANGSTROM
     29         10  H    CARTESIAN Y    -2.147279    -43.588021  KCAL/ANGSTROM
     30         10  H    CARTESIAN Z     0.277662    -15.586577  KCAL/ANGSTROM




   ATOM   CHEMICAL          X               Y               Z
  NUMBER   SYMBOL      (ANGSTROMS)     (ANGSTROMS)     (ANGSTROMS)
 
     1       C          0.64092446  *   1.20209440  *  -0.06383258  *
     2       H          1.13429822  *   2.14005789  *  -0.01539223  *
     3       C         -0.67494873  *   1.04467353  *   0.25767080  *
     4       H         -1.27030997  *   2.09144222  *   0.27765524  *
     5       H         -1.39184931  *   0.35873992  *  -0.13175455  *
     6       C          1.36003142  *  -0.04972214  *  -0.06395587  *
     7       H          2.41913561  *  -0.09605666  *  -0.01543398  *
     8       C          0.56277796  *  -1.10816581  *   0.25781039  *
     9       H         -0.39100624  *  -1.38656090  *  -0.12877834  *
    10       H          1.17152631  *  -2.14727855  *   0.27766209  *

                             CARTESIAN COORDINATES

   1    C        0.640924457     1.202094402    -0.063832584
   2    H        1.134298215     2.140057889    -0.015392231
   3    C       -0.674948725     1.044673528     0.257670801
   4    H       -1.270309968     2.091442224     0.277655240
   5    H       -1.391849315     0.358739924    -0.131754551
   6    C        1.360031425    -0.049722141    -0.063955872
   7    H        2.419135607    -0.096056660    -0.015433980
   8    C        0.562777958    -1.108165805     0.257810390
   9    H       -0.391006242    -1.386560901    -0.128778341
  10    H        1.171526308    -2.147278552     0.277662088


           Empirical Formula: C4 H6  =    10 atoms



      MOLECULAR POINT GROUP   :   Cs  


                  EIGENVALUES  
 -28.93021 -24.39949 -21.56375 -17.97584 -16.79533 -15.21040 -13.12812 -12.12218
 -11.93536 -11.58470  -9.14872  -0.06114   1.59996   4.29606   4.88538   5.36276
   5.52716   6.10239   6.12068   6.14680   6.46783   6.68874


              NET ATOMIC CHARGES AND DIPOLE CONTRIBUTIONS

  ATOM NO.   TYPE          CHARGE      No. of ELECS.   s-Pop       p-Pop       
    1          C          -0.132813        4.1328     1.09311     3.03970
    2          H           0.142468        0.8575     0.85753
    3          C          -0.290729        4.2907     1.12913     3.16160
    4          H           0.130041        0.8700     0.86996
    5          H           0.151103        0.8489     0.84890
    6          C          -0.132739        4.1327     1.09314     3.03960
    7          H           0.142444        0.8576     0.85756
    8          C          -0.290967        4.2910     1.12907     3.16189
    9          H           0.151256        0.8487     0.84874
   10          H           0.129937        0.8701     0.87006
 DIPOLE           X         Y         Z       TOTAL
 POINT-CHG.    -0.045    -0.027    -0.502     0.505
 HYBRID         0.016     0.008    -0.171     0.172
 SUM           -0.029    -0.019    -0.673     0.674


          ATOMIC ORBITAL ELECTRON POPULATIONS

     Atom    s        px        py        pz   
    1  C   1.09311   1.02586   1.04201   0.97183
    2  H   0.85753
    3  C   1.12913   1.02754   1.14473   0.98933
    4  H   0.86996
    5  H   0.84890
    6  C   1.09314   1.06415   1.00358   0.97187
    7  H   0.85756
    8  C   1.12907   1.11199   1.06043   0.98947
    9  H   0.84874
   10  H   0.87006

 **********************
 *                    *
 * JOB ENDED NORMALLY *
 *                    *
 **********************



 TOTAL JOB TIME:             0.03 SECONDS

 == MOPAC DONE ==
