 *******************************************************************************
 ** Site#: 36969        For non-commercial use only    Version 21.051W 64BITS **
 *******************************************************************************
 ** Cite this program as: MOPAC2016, Version: 21.051W, James J. P. Stewart,   **
 ** Stewart Computational Chemistry, web: HTTP://OpenMOPAC.net. Days left: 286**
 *******************************************************************************
 **                                                                           **
 **                                MOPAC2016                                  **
 **                                                                           **
 *******************************************************************************

                              PM7 CALCULATION RESULTS

 *******************************************************************************
 *  CALCULATION DONE:                                Mon May 10 12:59:39 2021  *
 *  PM7        - The PM7 Hamiltonian to be used
 *  STEP       - STEP-SIZE IN PATH =  -0.050
 *  POINT      - NUMBER OF POINTS IN PATH = 27
 *  T=         - A TIME OF 172800.0 SECONDS REQUESTED
 *  DUMP=N     - RESTART FILE WRITTEN EVERY 7200.0 SECONDS REQUESTED
 *******************************************************************************
PM7 STEP=-0.05 POINT=27
 temp_scan

  ATOM    CHEMICAL      BOND LENGTH      BOND ANGLE     TWIST ANGLE 
 NUMBER    SYMBOL       (ANGSTROMS)      (DEGREES)       (DEGREES) 
   (I)                     NA:I           NB:NA:I       NC:NB:NA:I       NA    NB    NC 
     1       C          0.93190300  *   -0.2642070  *    1.9628700  *     0     0     0
     2       C          0.70253300  *   -0.0345170  *    0.4801200  *     0     0     0
     3       C         -0.71260700  *    0.0987430  *    0.0258600  *     0     0     0
     4       C         -1.75815700  *   -0.1943770  *    0.8440100  *     0     0     0
     5       C         -1.50758700  *   -0.7449570  *    2.2403400  *     0     0     0
     6       C         -0.08263700  *   -1.2873570  *    2.4426900  *     0     0     0
     7       C          1.68907300  *    0.0646230  *   -0.4439100  *     0     0     0
     8       C          3.17281300  *   -0.0118670  *   -0.1969800  *     0     0     0
     9       N         -3.13127700  *   -0.0032270  *    0.4674600  *     0     0     0
    10       C         -3.63278700  *    0.4904530  *   -0.8086100  *     0     0     0
    11       C         -4.52410700  *   -0.5762770  *   -1.4488700  *     0     0     0
    12       C         -4.41817700  *    1.7836130  *   -0.5799300  *     0     0     0
    13       H          1.94799300  *   -0.6187270  *    2.2087300  *     0     0     0
    14       H          0.75103300  *    0.6840930  *    2.5145000  *     0     0     0
    15       H         -0.86227700  *    0.4521430  *   -0.9824500  *     0     0     0
    16       H         -2.19793700  *   -1.5927670  *    2.4400500  *     0     0     0
    17       H         -1.73606700  *    0.0637230  *    2.9676000  *     0     0     0
    18       H          0.05560300  *   -2.2226870  *    1.8547000  *     0     0     0
    19       H          0.06762300  *   -1.5275870  *    3.5173000  *     0     0     0
    20       H          1.41074300  *    0.2253530  *   -1.4824900  *     0     0     0
    21       H          3.63967300  *    0.9306630  *   -0.5510200  *     0     0     0
    22       H          3.46765300  *   -0.1454070  *    0.8571800  *     0     0     0
    23       H          3.59233300  *   -0.8559070  *   -0.7825300  *     0     0     0
    24       H         -3.84388700  *   -0.2403670  *    1.1758000  *     0     0     0
    25       H         -2.82703700  *    0.7183330  *   -1.5252700  *     0     0     0
    26       H         -4.91738700  *   -0.2167670  *   -2.4237800  *     0     0     0
    27       H         -3.93470700  *   -1.5007670  *   -1.6274700  *     0     0     0
    28       H         -5.38108700  *   -0.8223070  *   -0.7853200  *     0     0     0
    29       H         -5.27138700  *    1.6092630  *    0.1103900  *     0     0     0
    30       H         -4.81023700  *    2.1722330  *   -1.5442000  *     0     0     0
    31       H         -3.75170700  *    2.5538830  *   -0.1366400  *     0     0     0
    32      XX          1.06750000     103.4301300      72.5973100        6    18    28
    33      XX          0.95050000     117.3256580    -141.7349630       23    10     4
    34      XX          6.75960400  +    9.0711850     -96.1223740       32     6    25
 


          CARTESIAN COORDINATES 

    NO.       ATOM           X           Y           Z

     1         C          0.9319     -0.2642      1.9629
     2         C          0.7025     -0.0345      0.4801
     3         C         -0.7126      0.0987      0.0259
     4         C         -1.7582     -0.1944      0.8440
     5         C         -1.5076     -0.7450      2.2403
     6         C         -0.0826     -1.2874      2.4427
     7         C          1.6891      0.0646     -0.4439
     8         C          3.1728     -0.0119     -0.1970
     9         N         -3.1313     -0.0032      0.4675
    10         C         -3.6328      0.4905     -0.8086
    11         C         -4.5241     -0.5763     -1.4489
    12         C         -4.4182      1.7836     -0.5799
    13         H          1.9480     -0.6187      2.2087
    14         H          0.7510      0.6841      2.5145
    15         H         -0.8623      0.4521     -0.9824
    16         H         -2.1979     -1.5928      2.4400
    17         H         -1.7361      0.0637      2.9676
    18         H          0.0556     -2.2227      1.8547
    19         H          0.0676     -1.5276      3.5173
    20         H          1.4107      0.2254     -1.4825
    21         H          3.6397      0.9307     -0.5510
    22         H          3.4677     -0.1454      0.8572
    23         H          3.5923     -0.8559     -0.7825
    24         H         -3.8439     -0.2404      1.1758
    25         H         -2.8270      0.7183     -1.5253
    26         H         -4.9174     -0.2168     -2.4238
    27         H         -3.9347     -1.5008     -1.6275
    28         H         -5.3811     -0.8223     -0.7853
    29         H         -5.2714      1.6093      0.1104
    30         H         -4.8102      2.1722     -1.5442
    31         H         -3.7517      2.5539     -0.1366

 General Reference for PM7:
 "Optimization of Parameters for Semiempirical Methods VI: More Modifications to the 
 NDDO Approximations and Re-optimization of Parameters", J. J. P. Stewart, J. Mol. Mod., 1:32, 19 (2013)
 https://link.springer.com/article/10.1007/s00894-012-1667-x

           Empirical Formula: C11 H19 N  =    31 atoms



      MOLECULAR POINT GROUP   :   C1  


      RHF CALCULATION, NO. OF DOUBLY OCCUPIED LEVELS = 34

  ABOUT TO ENTER EF FROM PATHK

          Geometry optimization using EF

          DIAGONAL MATRIX USED AS START HESSIAN

 CYCLE:     1 TIME:   0.016 TIME LEFT:  2.00D  GRAD.:    94.662 HEAT: -2.776523
 CYCLE:     2 TIME:   0.020 TIME LEFT:  2.00D  GRAD.:   107.629 HEAT: -3.896372
 CYCLE:     3 TIME:   0.023 TIME LEFT:  2.00D  GRAD.:    62.883 HEAT: -6.157036
 CYCLE:     4 TIME:   0.020 TIME LEFT:  2.00D  GRAD.:    29.539 HEAT: -7.107092
 CYCLE:     5 TIME:   0.012 TIME LEFT:  2.00D  GRAD.:    42.058 HEAT: -7.507663
 CYCLE:     6 TIME:   0.012 TIME LEFT:  2.00D  GRAD.:    62.605 HEAT: -7.811503
 CYCLE:     7 TIME:   0.023 TIME LEFT:  2.00D  GRAD.:    33.078 HEAT: -8.373562
 CYCLE:     8 TIME:   0.020 TIME LEFT:  2.00D  GRAD.:    19.042 HEAT: -8.676079
 CYCLE:     9 TIME:   0.012 TIME LEFT:  2.00D  GRAD.:    19.959 HEAT: -8.836036
 CYCLE:    10 TIME:   0.012 TIME LEFT:  2.00D  GRAD.:    27.063 HEAT: -8.907650
 CYCLE:    11 TIME:   0.012 TIME LEFT:  2.00D  GRAD.:    23.737 HEAT: -9.024996
 CYCLE:    12 TIME:   0.008 TIME LEFT:  2.00D  GRAD.:    26.706 HEAT: -9.068329
 CYCLE:    13 TIME:   0.023 TIME LEFT:  2.00D  GRAD.:    10.740 HEAT: -9.292646
 CYCLE:    14 TIME:   0.016 TIME LEFT:  2.00D  GRAD.:     7.292 HEAT: -9.346827
 CYCLE:    15 TIME:   0.012 TIME LEFT:  2.00D  GRAD.:     9.768 HEAT: -9.387528
 CYCLE:    16 TIME:   0.012 TIME LEFT:  2.00D  GRAD.:    10.517 HEAT: -9.450748
 CYCLE:    17 TIME:   0.012 TIME LEFT:  2.00D  GRAD.:    14.241 HEAT: -9.485414
 CYCLE:    18 TIME:   0.012 TIME LEFT:  2.00D  GRAD.:    16.330 HEAT: -9.490796
 CYCLE:    19 TIME:   0.012 TIME LEFT:  2.00D  GRAD.:    14.962 HEAT: -9.518425
 CYCLE:    20 TIME:   0.020 TIME LEFT:  2.00D  GRAD.:     5.897 HEAT: -9.590871
 CYCLE:    21 TIME:   0.012 TIME LEFT:  2.00D  GRAD.:     6.935 HEAT: -9.597218
 CYCLE:    22 TIME:   0.012 TIME LEFT:  2.00D  GRAD.:     6.357 HEAT: -9.611333
 CYCLE:    23 TIME:   0.020 TIME LEFT:  2.00D  GRAD.:     4.886 HEAT: -9.625806
 CYCLE:    24 TIME:   0.012 TIME LEFT:  2.00D  GRAD.:     5.704 HEAT: -9.635433
 CYCLE:    25 TIME:   0.012 TIME LEFT:  2.00D  GRAD.:     3.796 HEAT: -9.658026
 CYCLE:    26 TIME:   0.023 TIME LEFT:  2.00D  GRAD.:     7.798 HEAT: -9.659694
 CYCLE:    27 TIME:   0.008 TIME LEFT:  2.00D  GRAD.:     4.022 HEAT: -9.682791
 CYCLE:    28 TIME:   0.012 TIME LEFT:  2.00D  GRAD.:     5.359 HEAT: -9.690198
 CYCLE:    29 TIME:   0.008 TIME LEFT:  2.00D  GRAD.:     2.773 HEAT: -9.702418
 CYCLE:    30 TIME:   0.012 TIME LEFT:  2.00D  GRAD.:     3.198 HEAT: -9.711151
 CYCLE:    31 TIME:   0.012 TIME LEFT:  2.00D  GRAD.:     3.058 HEAT: -9.721662
 CYCLE:    32 TIME:   0.012 TIME LEFT:  2.00D  GRAD.:     3.087 HEAT: -9.731288
 CYCLE:    33 TIME:   0.012 TIME LEFT:  2.00D  GRAD.:     2.109 HEAT: -9.738512
 CYCLE:    34 TIME:   0.012 TIME LEFT:  2.00D  GRAD.:     2.387 HEAT: -9.744155
 CYCLE:    35 TIME:   0.012 TIME LEFT:  2.00D  GRAD.:     1.930 HEAT: -9.752491
 CYCLE:    36 TIME:   0.012 TIME LEFT:  2.00D  GRAD.:     2.125 HEAT: -9.760215
 CYCLE:    37 TIME:   0.008 TIME LEFT:  2.00D  GRAD.:     2.456 HEAT: -9.768039
 CYCLE:    38 TIME:   0.016 TIME LEFT:  2.00D  GRAD.:     2.521 HEAT: -9.780154
 CYCLE:    39 TIME:   0.012 TIME LEFT:  2.00D  GRAD.:     2.675 HEAT: -9.791270
 CYCLE:    40 TIME:   0.008 TIME LEFT:  2.00D  GRAD.:     2.102 HEAT: -9.799994
 CYCLE:    41 TIME:   0.012 TIME LEFT:  2.00D  GRAD.:     2.154 HEAT: -9.808734
 CYCLE:    42 TIME:   0.012 TIME LEFT:  2.00D  GRAD.:     1.964 HEAT: -9.814358
 CYCLE:    43 TIME:   0.012 TIME LEFT:  2.00D  GRAD.:     1.383 HEAT: -9.817900
 CYCLE:    44 TIME:   0.012 TIME LEFT:  2.00D  GRAD.:     1.172 HEAT: -9.820450
 CYCLE:    45 TIME:   0.008 TIME LEFT:  2.00D  GRAD.:     1.214 HEAT: -9.822982
 CYCLE:    46 TIME:   0.012 TIME LEFT:  2.00D  GRAD.:     1.184 HEAT: -9.825573
 CYCLE:    47 TIME:   0.012 TIME LEFT:  2.00D  GRAD.:     1.098 HEAT: -9.827950
 CYCLE:    48 TIME:   0.012 TIME LEFT:  2.00D  GRAD.:     1.108 HEAT: -9.830263
 CYCLE:    49 TIME:   0.012 TIME LEFT:  2.00D  GRAD.:     1.385 HEAT: -9.833646
 CYCLE:    50 TIME:   0.012 TIME LEFT:  2.00D  GRAD.:     1.644 HEAT: -9.838738
 CYCLE:    51 TIME:   0.008 TIME LEFT:  2.00D  GRAD.:     1.953 HEAT: -9.846182
 CYCLE:    52 TIME:   0.008 TIME LEFT:  2.00D  GRAD.:     2.008 HEAT: -9.853863
 CYCLE:    53 TIME:   0.012 TIME LEFT:  2.00D  GRAD.:     1.721 HEAT: -9.862914
 CYCLE:    54 TIME:   0.012 TIME LEFT:  2.00D  GRAD.:     1.805 HEAT: -9.871840
 CYCLE:    55 TIME:   0.012 TIME LEFT:  2.00D  GRAD.:     1.656 HEAT: -9.877006
 CYCLE:    56 TIME:   0.012 TIME LEFT:  2.00D  GRAD.:     1.628 HEAT: -9.886226
 CYCLE:    57 TIME:   0.012 TIME LEFT:  2.00D  GRAD.:     1.744 HEAT: -9.892775
 CYCLE:    58 TIME:   0.012 TIME LEFT:  2.00D  GRAD.:     1.837 HEAT: -9.901608
 CYCLE:    59 TIME:   0.012 TIME LEFT:  2.00D  GRAD.:     2.345 HEAT: -9.911251
 CYCLE:    60 TIME:   0.012 TIME LEFT:  2.00D  GRAD.:     3.018 HEAT: -9.923409
 CYCLE:    61 TIME:   0.012 TIME LEFT:  2.00D  GRAD.:     2.735 HEAT: -9.933168
 CYCLE:    62 TIME:   0.012 TIME LEFT:  2.00D  GRAD.:     2.398 HEAT: -9.948310
 CYCLE:    63 TIME:   0.016 TIME LEFT:  2.00D  GRAD.:     2.046 HEAT: -9.956131
 CYCLE:    64 TIME:   0.008 TIME LEFT:  2.00D  GRAD.:     1.992 HEAT: -9.965291
 CYCLE:    65 TIME:   0.012 TIME LEFT:  2.00D  GRAD.:     1.895 HEAT: -9.974921
 CYCLE:    66 TIME:   0.016 TIME LEFT:  2.00D  GRAD.:     2.325 HEAT: -9.982322
 CYCLE:    67 TIME:   0.012 TIME LEFT:  2.00D  GRAD.:     1.864 HEAT: -9.989072
 CYCLE:    68 TIME:   0.008 TIME LEFT:  2.00D  GRAD.:     1.870 HEAT: -9.997266
 CYCLE:    69 TIME:   0.012 TIME LEFT:  2.00D  GRAD.:     1.704 HEAT: -10.00242
 CYCLE:    70 TIME:   0.012 TIME LEFT:  2.00D  GRAD.:     1.327 HEAT: -10.00793
 CYCLE:    71 TIME:   0.016 TIME LEFT:  2.00D  GRAD.:     1.197 HEAT: -10.01253
 CYCLE:    72 TIME:   0.008 TIME LEFT:  2.00D  GRAD.:     1.228 HEAT: -10.01622
 CYCLE:    73 TIME:   0.012 TIME LEFT:  2.00D  GRAD.:     1.408 HEAT: -10.02132
 CYCLE:    74 TIME:   0.012 TIME LEFT:  2.00D  GRAD.:     1.618 HEAT: -10.02699
 CYCLE:    75 TIME:   0.016 TIME LEFT:  2.00D  GRAD.:     1.791 HEAT: -10.03419
 CYCLE:    76 TIME:   0.016 TIME LEFT:  2.00D  GRAD.:     1.920 HEAT: -10.04282
 CYCLE:    77 TIME:   0.012 TIME LEFT:  2.00D  GRAD.:     1.932 HEAT: -10.05242
 CYCLE:    78 TIME:   0.012 TIME LEFT:  2.00D  GRAD.:     2.111 HEAT: -10.06479
 CYCLE:    79 TIME:   0.008 TIME LEFT:  2.00D  GRAD.:     1.791 HEAT: -10.07277
 CYCLE:    80 TIME:   0.012 TIME LEFT:  2.00D  GRAD.:     1.798 HEAT: -10.08303
 CYCLE:    81 TIME:   0.016 TIME LEFT:  2.00D  GRAD.:     1.587 HEAT: -10.08756
 CYCLE:    82 TIME:   0.008 TIME LEFT:  2.00D  GRAD.:     1.328 HEAT: -10.09366
 CYCLE:    83 TIME:   0.016 TIME LEFT:  2.00D  GRAD.:     1.431 HEAT: -10.09940
 CYCLE:    84 TIME:   0.012 TIME LEFT:  2.00D  GRAD.:     1.577 HEAT: -10.10556
 CYCLE:    85 TIME:   0.012 TIME LEFT:  2.00D  GRAD.:     1.677 HEAT: -10.11261
 CYCLE:    86 TIME:   0.012 TIME LEFT:  2.00D  GRAD.:     1.928 HEAT: -10.12169
 CYCLE:    87 TIME:   0.012 TIME LEFT:  2.00D  GRAD.:     2.083 HEAT: -10.13170
 CYCLE:    88 TIME:   0.023 TIME LEFT:  2.00D  GRAD.:     3.586 HEAT: -10.14465
 CYCLE:    89 TIME:   0.012 TIME LEFT:  2.00D  GRAD.:     2.489 HEAT: -10.15680
 CYCLE:    90 TIME:   0.012 TIME LEFT:  2.00D  GRAD.:     1.548 HEAT: -10.16269
 CYCLE:    91 TIME:   0.012 TIME LEFT:  2.00D  GRAD.:     0.884 HEAT: -10.16767

     GRADIENT =  0.88422 IS LESS THAN CUTOFF =  1.00000



          VARIABLE        FUNCTION
 :         6.75960      -10.167671
 PM7 STEP=-0.05 POINT=27
 temp_scan

  C     0.92852576 +1   -0.4175201 +1    1.8569757 +1     0     0     0
  C     0.66337065 +1   -0.0537540 +1    0.4226151 +1     0     0     0
  C    -0.72489960 +1    0.0576113 +1    0.0111322 +1     0     0     0
  C    -1.76577331 +1   -0.1924612 +1    0.8435321 +1     0     0     0
  C    -1.54303688 +1   -0.5549584 +1    2.2922754 +1     0     0     0
  C    -0.19939033 +1   -1.2769436 +1    2.4406589 +1     0     0     0
  C     1.65454687 +1    0.1777647 +1   -0.4580081 +1     0     0     0
  C     3.11203319 +1    0.0990744 +1   -0.1647535 +1     0     0     0
  N    -3.10097071 +1   -0.2074469 +1    0.4565295 +1     0     0     0
  C    -3.56735615 +1    0.4137619 +1   -0.7926086 +1     0     0     0
  C    -4.51840118 +1   -0.5709687 +1   -1.4935105 +1     0     0     0
  C    -4.29228705 +1    1.7384912 +1   -0.4945756 +1     0     0     0
  H     1.88803040 +1   -0.9638884 +1    1.9530003 +1     0     0     0
  H     1.04781397 +1    0.5133761 +1    2.4486537 +1     0     0     0
  H    -0.88715365 +1    0.3357421 +1   -1.0258197 +1     0     0     0
  H    -2.35746583 +1   -1.1908222 +1    2.6893588 +1     0     0     0
  H    -1.54565706 +1    0.3730172 +1    2.9016699 +1     0     0     0
  H    -0.23517753 +1   -2.2498825 +1    1.9115788 +1     0     0     0
  H     0.00013155 +1   -1.5057102 +1    3.5023781 +1     0     0     0
  H     1.42621866 +1    0.4402547 +1   -1.4892254 +1     0     0     0
  H     3.65361812 +1    0.9394596 +1   -0.6214544 +1     0     0     0
  H     3.34262755 +1    0.1187562 +1    0.9069402 +1     0     0     0
  H     3.54155403 +1   -0.8272831 +1   -0.5744926 +1     0     0     0
  H    -3.79966069 +1   -0.2630535 +1    1.1816989 +1     0     0     0
  H    -2.69030033 +1    0.6142057 +1   -1.4638061 +1     0     0     0
  H    -4.86239084 +1   -0.1690566 +1   -2.4509571 +1     0     0     0
  H    -4.01224425 +1   -1.5251035 +1   -1.6896854 +1     0     0     0
  H    -5.39938282 +1   -0.7927236 +1   -0.8840339 +1     0     0     0
  H    -5.16374714 +1    1.5891761 +1    0.1501832 +1     0     0     0
  H    -4.64674722 +1    2.2085464 +1   -1.4178668 +1     0     0     0
  H    -3.62426045 +1    2.4505133 +1    0.0036248 +1     0     0     0
 XX     1.06750000 +0  103.4301300 +0   72.5973100 +0     6    18    28
 XX     0.95050000 +0  117.3256580 +0 -141.7349630 +0    23    10     4
 XX     6.75960400 -1    9.0711850 +0  -96.1223740 +0    32     6    25
 

          Geometry optimization using EF

     GRADIENT =  0.89133 IS LESS THAN CUTOFF =  1.00000



          VARIABLE        FUNCTION
 :         6.70960      -10.167652
 PM7 STEP=-0.05 POINT=27
 temp_scan

  C     0.92852576 +1   -0.4175201 +1    1.8569757 +1     0     0     0
  C     0.66337065 +1   -0.0537540 +1    0.4226151 +1     0     0     0
  C    -0.72489960 +1    0.0576113 +1    0.0111322 +1     0     0     0
  C    -1.76577331 +1   -0.1924612 +1    0.8435321 +1     0     0     0
  C    -1.54303688 +1   -0.5549584 +1    2.2922754 +1     0     0     0
  C    -0.19939033 +1   -1.2769436 +1    2.4406589 +1     0     0     0
  C     1.65454687 +1    0.1777647 +1   -0.4580081 +1     0     0     0
  C     3.11203319 +1    0.0990744 +1   -0.1647535 +1     0     0     0
  N    -3.10097071 +1   -0.2074469 +1    0.4565295 +1     0     0     0
  C    -3.56735615 +1    0.4137619 +1   -0.7926086 +1     0     0     0
  C    -4.51840118 +1   -0.5709687 +1   -1.4935105 +1     0     0     0
  C    -4.29228705 +1    1.7384912 +1   -0.4945756 +1     0     0     0
  H     1.88803040 +1   -0.9638884 +1    1.9530003 +1     0     0     0
  H     1.04781397 +1    0.5133761 +1    2.4486537 +1     0     0     0
  H    -0.88715365 +1    0.3357421 +1   -1.0258197 +1     0     0     0
  H    -2.35746583 +1   -1.1908222 +1    2.6893588 +1     0     0     0
  H    -1.54565706 +1    0.3730172 +1    2.9016699 +1     0     0     0
  H    -0.23517753 +1   -2.2498825 +1    1.9115788 +1     0     0     0
  H     0.00013155 +1   -1.5057102 +1    3.5023781 +1     0     0     0
  H     1.42621866 +1    0.4402547 +1   -1.4892254 +1     0     0     0
  H     3.65361812 +1    0.9394596 +1   -0.6214544 +1     0     0     0
  H     3.34262755 +1    0.1187562 +1    0.9069402 +1     0     0     0
  H     3.54155403 +1   -0.8272831 +1   -0.5744926 +1     0     0     0
  H    -3.79966069 +1   -0.2630535 +1    1.1816989 +1     0     0     0
  H    -2.69030033 +1    0.6142057 +1   -1.4638061 +1     0     0     0
  H    -4.86239084 +1   -0.1690566 +1   -2.4509571 +1     0     0     0
  H    -4.01224425 +1   -1.5251035 +1   -1.6896854 +1     0     0     0
  H    -5.39938282 +1   -0.7927236 +1   -0.8840339 +1     0     0     0
  H    -5.16374714 +1    1.5891761 +1    0.1501832 +1     0     0     0
  H    -4.64674722 +1    2.2085464 +1   -1.4178668 +1     0     0     0
  H    -3.62426045 +1    2.4505133 +1    0.0036248 +1     0     0     0
 XX     1.06750000 +0  103.4301300 +0   72.5973100 +0     6    18    28
 XX     0.95050000 +0  117.3256580 +0 -141.7349630 +0    23    10     4
 XX     6.70960400 -1    9.0711850 +0  -96.1223740 +0    32     6    25
 

          Geometry optimization using EF

     GRADIENT =  0.89133 IS LESS THAN CUTOFF =  1.00000



          VARIABLE        FUNCTION
 :         6.65960      -10.167652
 PM7 STEP=-0.05 POINT=27
 temp_scan

  C     0.92852576 +1   -0.4175201 +1    1.8569757 +1     0     0     0
  C     0.66337065 +1   -0.0537540 +1    0.4226151 +1     0     0     0
  C    -0.72489960 +1    0.0576113 +1    0.0111322 +1     0     0     0
  C    -1.76577331 +1   -0.1924612 +1    0.8435321 +1     0     0     0
  C    -1.54303688 +1   -0.5549584 +1    2.2922754 +1     0     0     0
  C    -0.19939033 +1   -1.2769436 +1    2.4406589 +1     0     0     0
  C     1.65454687 +1    0.1777647 +1   -0.4580081 +1     0     0     0
  C     3.11203319 +1    0.0990744 +1   -0.1647535 +1     0     0     0
  N    -3.10097071 +1   -0.2074469 +1    0.4565295 +1     0     0     0
  C    -3.56735615 +1    0.4137619 +1   -0.7926086 +1     0     0     0
  C    -4.51840118 +1   -0.5709687 +1   -1.4935105 +1     0     0     0
  C    -4.29228705 +1    1.7384912 +1   -0.4945756 +1     0     0     0
  H     1.88803040 +1   -0.9638884 +1    1.9530003 +1     0     0     0
  H     1.04781397 +1    0.5133761 +1    2.4486537 +1     0     0     0
  H    -0.88715365 +1    0.3357421 +1   -1.0258197 +1     0     0     0
  H    -2.35746583 +1   -1.1908222 +1    2.6893588 +1     0     0     0
  H    -1.54565706 +1    0.3730172 +1    2.9016699 +1     0     0     0
  H    -0.23517753 +1   -2.2498825 +1    1.9115788 +1     0     0     0
  H     0.00013155 +1   -1.5057102 +1    3.5023781 +1     0     0     0
  H     1.42621866 +1    0.4402547 +1   -1.4892254 +1     0     0     0
  H     3.65361812 +1    0.9394596 +1   -0.6214544 +1     0     0     0
  H     3.34262755 +1    0.1187562 +1    0.9069402 +1     0     0     0
  H     3.54155403 +1   -0.8272831 +1   -0.5744926 +1     0     0     0
  H    -3.79966069 +1   -0.2630535 +1    1.1816989 +1     0     0     0
  H    -2.69030033 +1    0.6142057 +1   -1.4638061 +1     0     0     0
  H    -4.86239084 +1   -0.1690566 +1   -2.4509571 +1     0     0     0
  H    -4.01224425 +1   -1.5251035 +1   -1.6896854 +1     0     0     0
  H    -5.39938282 +1   -0.7927236 +1   -0.8840339 +1     0     0     0
  H    -5.16374714 +1    1.5891761 +1    0.1501832 +1     0     0     0
  H    -4.64674722 +1    2.2085464 +1   -1.4178668 +1     0     0     0
  H    -3.62426045 +1    2.4505133 +1    0.0036248 +1     0     0     0
 XX     1.06750000 +0  103.4301300 +0   72.5973100 +0     6    18    28
 XX     0.95050000 +0  117.3256580 +0 -141.7349630 +0    23    10     4
 XX     6.65960400 -1    9.0711850 +0  -96.1223740 +0    32     6    25
 

          Geometry optimization using EF

     GRADIENT =  0.89133 IS LESS THAN CUTOFF =  1.00000



          VARIABLE        FUNCTION
 :         6.60960      -10.167652
 PM7 STEP=-0.05 POINT=27
 temp_scan

  C     0.92852576 +1   -0.4175201 +1    1.8569757 +1     0     0     0
  C     0.66337065 +1   -0.0537540 +1    0.4226151 +1     0     0     0
  C    -0.72489960 +1    0.0576113 +1    0.0111322 +1     0     0     0
  C    -1.76577331 +1   -0.1924612 +1    0.8435321 +1     0     0     0
  C    -1.54303688 +1   -0.5549584 +1    2.2922754 +1     0     0     0
  C    -0.19939033 +1   -1.2769436 +1    2.4406589 +1     0     0     0
  C     1.65454687 +1    0.1777647 +1   -0.4580081 +1     0     0     0
  C     3.11203319 +1    0.0990744 +1   -0.1647535 +1     0     0     0
  N    -3.10097071 +1   -0.2074469 +1    0.4565295 +1     0     0     0
  C    -3.56735615 +1    0.4137619 +1   -0.7926086 +1     0     0     0
  C    -4.51840118 +1   -0.5709687 +1   -1.4935105 +1     0     0     0
  C    -4.29228705 +1    1.7384912 +1   -0.4945756 +1     0     0     0
  H     1.88803040 +1   -0.9638884 +1    1.9530003 +1     0     0     0
  H     1.04781397 +1    0.5133761 +1    2.4486537 +1     0     0     0
  H    -0.88715365 +1    0.3357421 +1   -1.0258197 +1     0     0     0
  H    -2.35746583 +1   -1.1908222 +1    2.6893588 +1     0     0     0
  H    -1.54565706 +1    0.3730172 +1    2.9016699 +1     0     0     0
  H    -0.23517753 +1   -2.2498825 +1    1.9115788 +1     0     0     0
  H     0.00013155 +1   -1.5057102 +1    3.5023781 +1     0     0     0
  H     1.42621866 +1    0.4402547 +1   -1.4892254 +1     0     0     0
  H     3.65361812 +1    0.9394596 +1   -0.6214544 +1     0     0     0
  H     3.34262755 +1    0.1187562 +1    0.9069402 +1     0     0     0
  H     3.54155403 +1   -0.8272831 +1   -0.5744926 +1     0     0     0
  H    -3.79966069 +1   -0.2630535 +1    1.1816989 +1     0     0     0
  H    -2.69030033 +1    0.6142057 +1   -1.4638061 +1     0     0     0
  H    -4.86239084 +1   -0.1690566 +1   -2.4509571 +1     0     0     0
  H    -4.01224425 +1   -1.5251035 +1   -1.6896854 +1     0     0     0
  H    -5.39938282 +1   -0.7927236 +1   -0.8840339 +1     0     0     0
  H    -5.16374714 +1    1.5891761 +1    0.1501832 +1     0     0     0
  H    -4.64674722 +1    2.2085464 +1   -1.4178668 +1     0     0     0
  H    -3.62426045 +1    2.4505133 +1    0.0036248 +1     0     0     0
 XX     1.06750000 +0  103.4301300 +0   72.5973100 +0     6    18    28
 XX     0.95050000 +0  117.3256580 +0 -141.7349630 +0    23    10     4
 XX     6.60960400 -1    9.0711850 +0  -96.1223740 +0    32     6    25
 

          Geometry optimization using EF

     GRADIENT =  0.89133 IS LESS THAN CUTOFF =  1.00000



          VARIABLE        FUNCTION
 :         6.55960      -10.167652
 PM7 STEP=-0.05 POINT=27
 temp_scan

  C     0.92852576 +1   -0.4175201 +1    1.8569757 +1     0     0     0
  C     0.66337065 +1   -0.0537540 +1    0.4226151 +1     0     0     0
  C    -0.72489960 +1    0.0576113 +1    0.0111322 +1     0     0     0
  C    -1.76577331 +1   -0.1924612 +1    0.8435321 +1     0     0     0
  C    -1.54303688 +1   -0.5549584 +1    2.2922754 +1     0     0     0
  C    -0.19939033 +1   -1.2769436 +1    2.4406589 +1     0     0     0
  C     1.65454687 +1    0.1777647 +1   -0.4580081 +1     0     0     0
  C     3.11203319 +1    0.0990744 +1   -0.1647535 +1     0     0     0
  N    -3.10097071 +1   -0.2074469 +1    0.4565295 +1     0     0     0
  C    -3.56735615 +1    0.4137619 +1   -0.7926086 +1     0     0     0
  C    -4.51840118 +1   -0.5709687 +1   -1.4935105 +1     0     0     0
  C    -4.29228705 +1    1.7384912 +1   -0.4945756 +1     0     0     0
  H     1.88803040 +1   -0.9638884 +1    1.9530003 +1     0     0     0
  H     1.04781397 +1    0.5133761 +1    2.4486537 +1     0     0     0
  H    -0.88715365 +1    0.3357421 +1   -1.0258197 +1     0     0     0
  H    -2.35746583 +1   -1.1908222 +1    2.6893588 +1     0     0     0
  H    -1.54565706 +1    0.3730172 +1    2.9016699 +1     0     0     0
  H    -0.23517753 +1   -2.2498825 +1    1.9115788 +1     0     0     0
  H     0.00013155 +1   -1.5057102 +1    3.5023781 +1     0     0     0
  H     1.42621866 +1    0.4402547 +1   -1.4892254 +1     0     0     0
  H     3.65361812 +1    0.9394596 +1   -0.6214544 +1     0     0     0
  H     3.34262755 +1    0.1187562 +1    0.9069402 +1     0     0     0
  H     3.54155403 +1   -0.8272831 +1   -0.5744926 +1     0     0     0
  H    -3.79966069 +1   -0.2630535 +1    1.1816989 +1     0     0     0
  H    -2.69030033 +1    0.6142057 +1   -1.4638061 +1     0     0     0
  H    -4.86239084 +1   -0.1690566 +1   -2.4509571 +1     0     0     0
  H    -4.01224425 +1   -1.5251035 +1   -1.6896854 +1     0     0     0
  H    -5.39938282 +1   -0.7927236 +1   -0.8840339 +1     0     0     0
  H    -5.16374714 +1    1.5891761 +1    0.1501832 +1     0     0     0
  H    -4.64674722 +1    2.2085464 +1   -1.4178668 +1     0     0     0
  H    -3.62426045 +1    2.4505133 +1    0.0036248 +1     0     0     0
 XX     1.06750000 +0  103.4301300 +0   72.5973100 +0     6    18    28
 XX     0.95050000 +0  117.3256580 +0 -141.7349630 +0    23    10     4
 XX     6.55960400 -1    9.0711850 +0  -96.1223740 +0    32     6    25
 

          Geometry optimization using EF

     GRADIENT =  0.89133 IS LESS THAN CUTOFF =  1.00000



          VARIABLE        FUNCTION
 :         6.50960      -10.167652
 PM7 STEP=-0.05 POINT=27
 temp_scan

  C     0.92852576 +1   -0.4175201 +1    1.8569757 +1     0     0     0
  C     0.66337065 +1   -0.0537540 +1    0.4226151 +1     0     0     0
  C    -0.72489960 +1    0.0576113 +1    0.0111322 +1     0     0     0
  C    -1.76577331 +1   -0.1924612 +1    0.8435321 +1     0     0     0
  C    -1.54303688 +1   -0.5549584 +1    2.2922754 +1     0     0     0
  C    -0.19939033 +1   -1.2769436 +1    2.4406589 +1     0     0     0
  C     1.65454687 +1    0.1777647 +1   -0.4580081 +1     0     0     0
  C     3.11203319 +1    0.0990744 +1   -0.1647535 +1     0     0     0
  N    -3.10097071 +1   -0.2074469 +1    0.4565295 +1     0     0     0
  C    -3.56735615 +1    0.4137619 +1   -0.7926086 +1     0     0     0
  C    -4.51840118 +1   -0.5709687 +1   -1.4935105 +1     0     0     0
  C    -4.29228705 +1    1.7384912 +1   -0.4945756 +1     0     0     0
  H     1.88803040 +1   -0.9638884 +1    1.9530003 +1     0     0     0
  H     1.04781397 +1    0.5133761 +1    2.4486537 +1     0     0     0
  H    -0.88715365 +1    0.3357421 +1   -1.0258197 +1     0     0     0
  H    -2.35746583 +1   -1.1908222 +1    2.6893588 +1     0     0     0
  H    -1.54565706 +1    0.3730172 +1    2.9016699 +1     0     0     0
  H    -0.23517753 +1   -2.2498825 +1    1.9115788 +1     0     0     0
  H     0.00013155 +1   -1.5057102 +1    3.5023781 +1     0     0     0
  H     1.42621866 +1    0.4402547 +1   -1.4892254 +1     0     0     0
  H     3.65361812 +1    0.9394596 +1   -0.6214544 +1     0     0     0
  H     3.34262755 +1    0.1187562 +1    0.9069402 +1     0     0     0
  H     3.54155403 +1   -0.8272831 +1   -0.5744926 +1     0     0     0
  H    -3.79966069 +1   -0.2630535 +1    1.1816989 +1     0     0     0
  H    -2.69030033 +1    0.6142057 +1   -1.4638061 +1     0     0     0
  H    -4.86239084 +1   -0.1690566 +1   -2.4509571 +1     0     0     0
  H    -4.01224425 +1   -1.5251035 +1   -1.6896854 +1     0     0     0
  H    -5.39938282 +1   -0.7927236 +1   -0.8840339 +1     0     0     0
  H    -5.16374714 +1    1.5891761 +1    0.1501832 +1     0     0     0
  H    -4.64674722 +1    2.2085464 +1   -1.4178668 +1     0     0     0
  H    -3.62426045 +1    2.4505133 +1    0.0036248 +1     0     0     0
 XX     1.06750000 +0  103.4301300 +0   72.5973100 +0     6    18    28
 XX     0.95050000 +0  117.3256580 +0 -141.7349630 +0    23    10     4
 XX     6.50960400 -1    9.0711850 +0  -96.1223740 +0    32     6    25
 

          Geometry optimization using EF

     GRADIENT =  0.89133 IS LESS THAN CUTOFF =  1.00000



          VARIABLE        FUNCTION
 :         6.45960      -10.167652
 PM7 STEP=-0.05 POINT=27
 temp_scan

  C     0.92852576 +1   -0.4175201 +1    1.8569757 +1     0     0     0
  C     0.66337065 +1   -0.0537540 +1    0.4226151 +1     0     0     0
  C    -0.72489960 +1    0.0576113 +1    0.0111322 +1     0     0     0
  C    -1.76577331 +1   -0.1924612 +1    0.8435321 +1     0     0     0
  C    -1.54303688 +1   -0.5549584 +1    2.2922754 +1     0     0     0
  C    -0.19939033 +1   -1.2769436 +1    2.4406589 +1     0     0     0
  C     1.65454687 +1    0.1777647 +1   -0.4580081 +1     0     0     0
  C     3.11203319 +1    0.0990744 +1   -0.1647535 +1     0     0     0
  N    -3.10097071 +1   -0.2074469 +1    0.4565295 +1     0     0     0
  C    -3.56735615 +1    0.4137619 +1   -0.7926086 +1     0     0     0
  C    -4.51840118 +1   -0.5709687 +1   -1.4935105 +1     0     0     0
  C    -4.29228705 +1    1.7384912 +1   -0.4945756 +1     0     0     0
  H     1.88803040 +1   -0.9638884 +1    1.9530003 +1     0     0     0
  H     1.04781397 +1    0.5133761 +1    2.4486537 +1     0     0     0
  H    -0.88715365 +1    0.3357421 +1   -1.0258197 +1     0     0     0
  H    -2.35746583 +1   -1.1908222 +1    2.6893588 +1     0     0     0
  H    -1.54565706 +1    0.3730172 +1    2.9016699 +1     0     0     0
  H    -0.23517753 +1   -2.2498825 +1    1.9115788 +1     0     0     0
  H     0.00013155 +1   -1.5057102 +1    3.5023781 +1     0     0     0
  H     1.42621866 +1    0.4402547 +1   -1.4892254 +1     0     0     0
  H     3.65361812 +1    0.9394596 +1   -0.6214544 +1     0     0     0
  H     3.34262755 +1    0.1187562 +1    0.9069402 +1     0     0     0
  H     3.54155403 +1   -0.8272831 +1   -0.5744926 +1     0     0     0
  H    -3.79966069 +1   -0.2630535 +1    1.1816989 +1     0     0     0
  H    -2.69030033 +1    0.6142057 +1   -1.4638061 +1     0     0     0
  H    -4.86239084 +1   -0.1690566 +1   -2.4509571 +1     0     0     0
  H    -4.01224425 +1   -1.5251035 +1   -1.6896854 +1     0     0     0
  H    -5.39938282 +1   -0.7927236 +1   -0.8840339 +1     0     0     0
  H    -5.16374714 +1    1.5891761 +1    0.1501832 +1     0     0     0
  H    -4.64674722 +1    2.2085464 +1   -1.4178668 +1     0     0     0
  H    -3.62426045 +1    2.4505133 +1    0.0036248 +1     0     0     0
 XX     1.06750000 +0  103.4301300 +0   72.5973100 +0     6    18    28
 XX     0.95050000 +0  117.3256580 +0 -141.7349630 +0    23    10     4
 XX     6.45960400 -1    9.0711850 +0  -96.1223740 +0    32     6    25
 

          Geometry optimization using EF

     GRADIENT =  0.89133 IS LESS THAN CUTOFF =  1.00000



          VARIABLE        FUNCTION
 :         6.40960      -10.167652
 PM7 STEP=-0.05 POINT=27
 temp_scan

  C     0.92852576 +1   -0.4175201 +1    1.8569757 +1     0     0     0
  C     0.66337065 +1   -0.0537540 +1    0.4226151 +1     0     0     0
  C    -0.72489960 +1    0.0576113 +1    0.0111322 +1     0     0     0
  C    -1.76577331 +1   -0.1924612 +1    0.8435321 +1     0     0     0
  C    -1.54303688 +1   -0.5549584 +1    2.2922754 +1     0     0     0
  C    -0.19939033 +1   -1.2769436 +1    2.4406589 +1     0     0     0
  C     1.65454687 +1    0.1777647 +1   -0.4580081 +1     0     0     0
  C     3.11203319 +1    0.0990744 +1   -0.1647535 +1     0     0     0
  N    -3.10097071 +1   -0.2074469 +1    0.4565295 +1     0     0     0
  C    -3.56735615 +1    0.4137619 +1   -0.7926086 +1     0     0     0
  C    -4.51840118 +1   -0.5709687 +1   -1.4935105 +1     0     0     0
  C    -4.29228705 +1    1.7384912 +1   -0.4945756 +1     0     0     0
  H     1.88803040 +1   -0.9638884 +1    1.9530003 +1     0     0     0
  H     1.04781397 +1    0.5133761 +1    2.4486537 +1     0     0     0
  H    -0.88715365 +1    0.3357421 +1   -1.0258197 +1     0     0     0
  H    -2.35746583 +1   -1.1908222 +1    2.6893588 +1     0     0     0
  H    -1.54565706 +1    0.3730172 +1    2.9016699 +1     0     0     0
  H    -0.23517753 +1   -2.2498825 +1    1.9115788 +1     0     0     0
  H     0.00013155 +1   -1.5057102 +1    3.5023781 +1     0     0     0
  H     1.42621866 +1    0.4402547 +1   -1.4892254 +1     0     0     0
  H     3.65361812 +1    0.9394596 +1   -0.6214544 +1     0     0     0
  H     3.34262755 +1    0.1187562 +1    0.9069402 +1     0     0     0
  H     3.54155403 +1   -0.8272831 +1   -0.5744926 +1     0     0     0
  H    -3.79966069 +1   -0.2630535 +1    1.1816989 +1     0     0     0
  H    -2.69030033 +1    0.6142057 +1   -1.4638061 +1     0     0     0
  H    -4.86239084 +1   -0.1690566 +1   -2.4509571 +1     0     0     0
  H    -4.01224425 +1   -1.5251035 +1   -1.6896854 +1     0     0     0
  H    -5.39938282 +1   -0.7927236 +1   -0.8840339 +1     0     0     0
  H    -5.16374714 +1    1.5891761 +1    0.1501832 +1     0     0     0
  H    -4.64674722 +1    2.2085464 +1   -1.4178668 +1     0     0     0
  H    -3.62426045 +1    2.4505133 +1    0.0036248 +1     0     0     0
 XX     1.06750000 +0  103.4301300 +0   72.5973100 +0     6    18    28
 XX     0.95050000 +0  117.3256580 +0 -141.7349630 +0    23    10     4
 XX     6.40960400 -1    9.0711850 +0  -96.1223740 +0    32     6    25
 

          Geometry optimization using EF

     GRADIENT =  0.89133 IS LESS THAN CUTOFF =  1.00000



          VARIABLE        FUNCTION
 :         6.35960      -10.167652
 PM7 STEP=-0.05 POINT=27
 temp_scan

  C     0.92852576 +1   -0.4175201 +1    1.8569757 +1     0     0     0
  C     0.66337065 +1   -0.0537540 +1    0.4226151 +1     0     0     0
  C    -0.72489960 +1    0.0576113 +1    0.0111322 +1     0     0     0
  C    -1.76577331 +1   -0.1924612 +1    0.8435321 +1     0     0     0
  C    -1.54303688 +1   -0.5549584 +1    2.2922754 +1     0     0     0
  C    -0.19939033 +1   -1.2769436 +1    2.4406589 +1     0     0     0
  C     1.65454687 +1    0.1777647 +1   -0.4580081 +1     0     0     0
  C     3.11203319 +1    0.0990744 +1   -0.1647535 +1     0     0     0
  N    -3.10097071 +1   -0.2074469 +1    0.4565295 +1     0     0     0
  C    -3.56735615 +1    0.4137619 +1   -0.7926086 +1     0     0     0
  C    -4.51840118 +1   -0.5709687 +1   -1.4935105 +1     0     0     0
  C    -4.29228705 +1    1.7384912 +1   -0.4945756 +1     0     0     0
  H     1.88803040 +1   -0.9638884 +1    1.9530003 +1     0     0     0
  H     1.04781397 +1    0.5133761 +1    2.4486537 +1     0     0     0
  H    -0.88715365 +1    0.3357421 +1   -1.0258197 +1     0     0     0
  H    -2.35746583 +1   -1.1908222 +1    2.6893588 +1     0     0     0
  H    -1.54565706 +1    0.3730172 +1    2.9016699 +1     0     0     0
  H    -0.23517753 +1   -2.2498825 +1    1.9115788 +1     0     0     0
  H     0.00013155 +1   -1.5057102 +1    3.5023781 +1     0     0     0
  H     1.42621866 +1    0.4402547 +1   -1.4892254 +1     0     0     0
  H     3.65361812 +1    0.9394596 +1   -0.6214544 +1     0     0     0
  H     3.34262755 +1    0.1187562 +1    0.9069402 +1     0     0     0
  H     3.54155403 +1   -0.8272831 +1   -0.5744926 +1     0     0     0
  H    -3.79966069 +1   -0.2630535 +1    1.1816989 +1     0     0     0
  H    -2.69030033 +1    0.6142057 +1   -1.4638061 +1     0     0     0
  H    -4.86239084 +1   -0.1690566 +1   -2.4509571 +1     0     0     0
  H    -4.01224425 +1   -1.5251035 +1   -1.6896854 +1     0     0     0
  H    -5.39938282 +1   -0.7927236 +1   -0.8840339 +1     0     0     0
  H    -5.16374714 +1    1.5891761 +1    0.1501832 +1     0     0     0
  H    -4.64674722 +1    2.2085464 +1   -1.4178668 +1     0     0     0
  H    -3.62426045 +1    2.4505133 +1    0.0036248 +1     0     0     0
 XX     1.06750000 +0  103.4301300 +0   72.5973100 +0     6    18    28
 XX     0.95050000 +0  117.3256580 +0 -141.7349630 +0    23    10     4
 XX     6.35960400 -1    9.0711850 +0  -96.1223740 +0    32     6    25
 

          Geometry optimization using EF

     GRADIENT =  0.89133 IS LESS THAN CUTOFF =  1.00000



          VARIABLE        FUNCTION
 :         6.30960      -10.167652
 PM7 STEP=-0.05 POINT=27
 temp_scan

  C     0.92852576 +1   -0.4175201 +1    1.8569757 +1     0     0     0
  C     0.66337065 +1   -0.0537540 +1    0.4226151 +1     0     0     0
  C    -0.72489960 +1    0.0576113 +1    0.0111322 +1     0     0     0
  C    -1.76577331 +1   -0.1924612 +1    0.8435321 +1     0     0     0
  C    -1.54303688 +1   -0.5549584 +1    2.2922754 +1     0     0     0
  C    -0.19939033 +1   -1.2769436 +1    2.4406589 +1     0     0     0
  C     1.65454687 +1    0.1777647 +1   -0.4580081 +1     0     0     0
  C     3.11203319 +1    0.0990744 +1   -0.1647535 +1     0     0     0
  N    -3.10097071 +1   -0.2074469 +1    0.4565295 +1     0     0     0
  C    -3.56735615 +1    0.4137619 +1   -0.7926086 +1     0     0     0
  C    -4.51840118 +1   -0.5709687 +1   -1.4935105 +1     0     0     0
  C    -4.29228705 +1    1.7384912 +1   -0.4945756 +1     0     0     0
  H     1.88803040 +1   -0.9638884 +1    1.9530003 +1     0     0     0
  H     1.04781397 +1    0.5133761 +1    2.4486537 +1     0     0     0
  H    -0.88715365 +1    0.3357421 +1   -1.0258197 +1     0     0     0
  H    -2.35746583 +1   -1.1908222 +1    2.6893588 +1     0     0     0
  H    -1.54565706 +1    0.3730172 +1    2.9016699 +1     0     0     0
  H    -0.23517753 +1   -2.2498825 +1    1.9115788 +1     0     0     0
  H     0.00013155 +1   -1.5057102 +1    3.5023781 +1     0     0     0
  H     1.42621866 +1    0.4402547 +1   -1.4892254 +1     0     0     0
  H     3.65361812 +1    0.9394596 +1   -0.6214544 +1     0     0     0
  H     3.34262755 +1    0.1187562 +1    0.9069402 +1     0     0     0
  H     3.54155403 +1   -0.8272831 +1   -0.5744926 +1     0     0     0
  H    -3.79966069 +1   -0.2630535 +1    1.1816989 +1     0     0     0
  H    -2.69030033 +1    0.6142057 +1   -1.4638061 +1     0     0     0
  H    -4.86239084 +1   -0.1690566 +1   -2.4509571 +1     0     0     0
  H    -4.01224425 +1   -1.5251035 +1   -1.6896854 +1     0     0     0
  H    -5.39938282 +1   -0.7927236 +1   -0.8840339 +1     0     0     0
  H    -5.16374714 +1    1.5891761 +1    0.1501832 +1     0     0     0
  H    -4.64674722 +1    2.2085464 +1   -1.4178668 +1     0     0     0
  H    -3.62426045 +1    2.4505133 +1    0.0036248 +1     0     0     0
 XX     1.06750000 +0  103.4301300 +0   72.5973100 +0     6    18    28
 XX     0.95050000 +0  117.3256580 +0 -141.7349630 +0    23    10     4
 XX     6.30960400 -1    9.0711850 +0  -96.1223740 +0    32     6    25
 

          Geometry optimization using EF

     GRADIENT =  0.89133 IS LESS THAN CUTOFF =  1.00000



          VARIABLE        FUNCTION
 :         6.25960      -10.167652
 PM7 STEP=-0.05 POINT=27
 temp_scan

  C     0.92852576 +1   -0.4175201 +1    1.8569757 +1     0     0     0
  C     0.66337065 +1   -0.0537540 +1    0.4226151 +1     0     0     0
  C    -0.72489960 +1    0.0576113 +1    0.0111322 +1     0     0     0
  C    -1.76577331 +1   -0.1924612 +1    0.8435321 +1     0     0     0
  C    -1.54303688 +1   -0.5549584 +1    2.2922754 +1     0     0     0
  C    -0.19939033 +1   -1.2769436 +1    2.4406589 +1     0     0     0
  C     1.65454687 +1    0.1777647 +1   -0.4580081 +1     0     0     0
  C     3.11203319 +1    0.0990744 +1   -0.1647535 +1     0     0     0
  N    -3.10097071 +1   -0.2074469 +1    0.4565295 +1     0     0     0
  C    -3.56735615 +1    0.4137619 +1   -0.7926086 +1     0     0     0
  C    -4.51840118 +1   -0.5709687 +1   -1.4935105 +1     0     0     0
  C    -4.29228705 +1    1.7384912 +1   -0.4945756 +1     0     0     0
  H     1.88803040 +1   -0.9638884 +1    1.9530003 +1     0     0     0
  H     1.04781397 +1    0.5133761 +1    2.4486537 +1     0     0     0
  H    -0.88715365 +1    0.3357421 +1   -1.0258197 +1     0     0     0
  H    -2.35746583 +1   -1.1908222 +1    2.6893588 +1     0     0     0
  H    -1.54565706 +1    0.3730172 +1    2.9016699 +1     0     0     0
  H    -0.23517753 +1   -2.2498825 +1    1.9115788 +1     0     0     0
  H     0.00013155 +1   -1.5057102 +1    3.5023781 +1     0     0     0
  H     1.42621866 +1    0.4402547 +1   -1.4892254 +1     0     0     0
  H     3.65361812 +1    0.9394596 +1   -0.6214544 +1     0     0     0
  H     3.34262755 +1    0.1187562 +1    0.9069402 +1     0     0     0
  H     3.54155403 +1   -0.8272831 +1   -0.5744926 +1     0     0     0
  H    -3.79966069 +1   -0.2630535 +1    1.1816989 +1     0     0     0
  H    -2.69030033 +1    0.6142057 +1   -1.4638061 +1     0     0     0
  H    -4.86239084 +1   -0.1690566 +1   -2.4509571 +1     0     0     0
  H    -4.01224425 +1   -1.5251035 +1   -1.6896854 +1     0     0     0
  H    -5.39938282 +1   -0.7927236 +1   -0.8840339 +1     0     0     0
  H    -5.16374714 +1    1.5891761 +1    0.1501832 +1     0     0     0
  H    -4.64674722 +1    2.2085464 +1   -1.4178668 +1     0     0     0
  H    -3.62426045 +1    2.4505133 +1    0.0036248 +1     0     0     0
 XX     1.06750000 +0  103.4301300 +0   72.5973100 +0     6    18    28
 XX     0.95050000 +0  117.3256580 +0 -141.7349630 +0    23    10     4
 XX     6.25960400 -1    9.0711850 +0  -96.1223740 +0    32     6    25
 

          Geometry optimization using EF

     GRADIENT =  0.89133 IS LESS THAN CUTOFF =  1.00000



          VARIABLE        FUNCTION
 :         6.20960      -10.167652
 PM7 STEP=-0.05 POINT=27
 temp_scan

  C     0.92852576 +1   -0.4175201 +1    1.8569757 +1     0     0     0
  C     0.66337065 +1   -0.0537540 +1    0.4226151 +1     0     0     0
  C    -0.72489960 +1    0.0576113 +1    0.0111322 +1     0     0     0
  C    -1.76577331 +1   -0.1924612 +1    0.8435321 +1     0     0     0
  C    -1.54303688 +1   -0.5549584 +1    2.2922754 +1     0     0     0
  C    -0.19939033 +1   -1.2769436 +1    2.4406589 +1     0     0     0
  C     1.65454687 +1    0.1777647 +1   -0.4580081 +1     0     0     0
  C     3.11203319 +1    0.0990744 +1   -0.1647535 +1     0     0     0
  N    -3.10097071 +1   -0.2074469 +1    0.4565295 +1     0     0     0
  C    -3.56735615 +1    0.4137619 +1   -0.7926086 +1     0     0     0
  C    -4.51840118 +1   -0.5709687 +1   -1.4935105 +1     0     0     0
  C    -4.29228705 +1    1.7384912 +1   -0.4945756 +1     0     0     0
  H     1.88803040 +1   -0.9638884 +1    1.9530003 +1     0     0     0
  H     1.04781397 +1    0.5133761 +1    2.4486537 +1     0     0     0
  H    -0.88715365 +1    0.3357421 +1   -1.0258197 +1     0     0     0
  H    -2.35746583 +1   -1.1908222 +1    2.6893588 +1     0     0     0
  H    -1.54565706 +1    0.3730172 +1    2.9016699 +1     0     0     0
  H    -0.23517753 +1   -2.2498825 +1    1.9115788 +1     0     0     0
  H     0.00013155 +1   -1.5057102 +1    3.5023781 +1     0     0     0
  H     1.42621866 +1    0.4402547 +1   -1.4892254 +1     0     0     0
  H     3.65361812 +1    0.9394596 +1   -0.6214544 +1     0     0     0
  H     3.34262755 +1    0.1187562 +1    0.9069402 +1     0     0     0
  H     3.54155403 +1   -0.8272831 +1   -0.5744926 +1     0     0     0
  H    -3.79966069 +1   -0.2630535 +1    1.1816989 +1     0     0     0
  H    -2.69030033 +1    0.6142057 +1   -1.4638061 +1     0     0     0
  H    -4.86239084 +1   -0.1690566 +1   -2.4509571 +1     0     0     0
  H    -4.01224425 +1   -1.5251035 +1   -1.6896854 +1     0     0     0
  H    -5.39938282 +1   -0.7927236 +1   -0.8840339 +1     0     0     0
  H    -5.16374714 +1    1.5891761 +1    0.1501832 +1     0     0     0
  H    -4.64674722 +1    2.2085464 +1   -1.4178668 +1     0     0     0
  H    -3.62426045 +1    2.4505133 +1    0.0036248 +1     0     0     0
 XX     1.06750000 +0  103.4301300 +0   72.5973100 +0     6    18    28
 XX     0.95050000 +0  117.3256580 +0 -141.7349630 +0    23    10     4
 XX     6.20960400 -1    9.0711850 +0  -96.1223740 +0    32     6    25
 

          Geometry optimization using EF

     GRADIENT =  0.89133 IS LESS THAN CUTOFF =  1.00000



          VARIABLE        FUNCTION
 :         6.15960      -10.167652
 PM7 STEP=-0.05 POINT=27
 temp_scan

  C     0.92852576 +1   -0.4175201 +1    1.8569757 +1     0     0     0
  C     0.66337065 +1   -0.0537540 +1    0.4226151 +1     0     0     0
  C    -0.72489960 +1    0.0576113 +1    0.0111322 +1     0     0     0
  C    -1.76577331 +1   -0.1924612 +1    0.8435321 +1     0     0     0
  C    -1.54303688 +1   -0.5549584 +1    2.2922754 +1     0     0     0
  C    -0.19939033 +1   -1.2769436 +1    2.4406589 +1     0     0     0
  C     1.65454687 +1    0.1777647 +1   -0.4580081 +1     0     0     0
  C     3.11203319 +1    0.0990744 +1   -0.1647535 +1     0     0     0
  N    -3.10097071 +1   -0.2074469 +1    0.4565295 +1     0     0     0
  C    -3.56735615 +1    0.4137619 +1   -0.7926086 +1     0     0     0
  C    -4.51840118 +1   -0.5709687 +1   -1.4935105 +1     0     0     0
  C    -4.29228705 +1    1.7384912 +1   -0.4945756 +1     0     0     0
  H     1.88803040 +1   -0.9638884 +1    1.9530003 +1     0     0     0
  H     1.04781397 +1    0.5133761 +1    2.4486537 +1     0     0     0
  H    -0.88715365 +1    0.3357421 +1   -1.0258197 +1     0     0     0
  H    -2.35746583 +1   -1.1908222 +1    2.6893588 +1     0     0     0
  H    -1.54565706 +1    0.3730172 +1    2.9016699 +1     0     0     0
  H    -0.23517753 +1   -2.2498825 +1    1.9115788 +1     0     0     0
  H     0.00013155 +1   -1.5057102 +1    3.5023781 +1     0     0     0
  H     1.42621866 +1    0.4402547 +1   -1.4892254 +1     0     0     0
  H     3.65361812 +1    0.9394596 +1   -0.6214544 +1     0     0     0
  H     3.34262755 +1    0.1187562 +1    0.9069402 +1     0     0     0
  H     3.54155403 +1   -0.8272831 +1   -0.5744926 +1     0     0     0
  H    -3.79966069 +1   -0.2630535 +1    1.1816989 +1     0     0     0
  H    -2.69030033 +1    0.6142057 +1   -1.4638061 +1     0     0     0
  H    -4.86239084 +1   -0.1690566 +1   -2.4509571 +1     0     0     0
  H    -4.01224425 +1   -1.5251035 +1   -1.6896854 +1     0     0     0
  H    -5.39938282 +1   -0.7927236 +1   -0.8840339 +1     0     0     0
  H    -5.16374714 +1    1.5891761 +1    0.1501832 +1     0     0     0
  H    -4.64674722 +1    2.2085464 +1   -1.4178668 +1     0     0     0
  H    -3.62426045 +1    2.4505133 +1    0.0036248 +1     0     0     0
 XX     1.06750000 +0  103.4301300 +0   72.5973100 +0     6    18    28
 XX     0.95050000 +0  117.3256580 +0 -141.7349630 +0    23    10     4
 XX     6.15960400 -1    9.0711850 +0  -96.1223740 +0    32     6    25
 

          Geometry optimization using EF

     GRADIENT =  0.89133 IS LESS THAN CUTOFF =  1.00000



          VARIABLE        FUNCTION
 :         6.10960      -10.167652
 PM7 STEP=-0.05 POINT=27
 temp_scan

  C     0.92852576 +1   -0.4175201 +1    1.8569757 +1     0     0     0
  C     0.66337065 +1   -0.0537540 +1    0.4226151 +1     0     0     0
  C    -0.72489960 +1    0.0576113 +1    0.0111322 +1     0     0     0
  C    -1.76577331 +1   -0.1924612 +1    0.8435321 +1     0     0     0
  C    -1.54303688 +1   -0.5549584 +1    2.2922754 +1     0     0     0
  C    -0.19939033 +1   -1.2769436 +1    2.4406589 +1     0     0     0
  C     1.65454687 +1    0.1777647 +1   -0.4580081 +1     0     0     0
  C     3.11203319 +1    0.0990744 +1   -0.1647535 +1     0     0     0
  N    -3.10097071 +1   -0.2074469 +1    0.4565295 +1     0     0     0
  C    -3.56735615 +1    0.4137619 +1   -0.7926086 +1     0     0     0
  C    -4.51840118 +1   -0.5709687 +1   -1.4935105 +1     0     0     0
  C    -4.29228705 +1    1.7384912 +1   -0.4945756 +1     0     0     0
  H     1.88803040 +1   -0.9638884 +1    1.9530003 +1     0     0     0
  H     1.04781397 +1    0.5133761 +1    2.4486537 +1     0     0     0
  H    -0.88715365 +1    0.3357421 +1   -1.0258197 +1     0     0     0
  H    -2.35746583 +1   -1.1908222 +1    2.6893588 +1     0     0     0
  H    -1.54565706 +1    0.3730172 +1    2.9016699 +1     0     0     0
  H    -0.23517753 +1   -2.2498825 +1    1.9115788 +1     0     0     0
  H     0.00013155 +1   -1.5057102 +1    3.5023781 +1     0     0     0
  H     1.42621866 +1    0.4402547 +1   -1.4892254 +1     0     0     0
  H     3.65361812 +1    0.9394596 +1   -0.6214544 +1     0     0     0
  H     3.34262755 +1    0.1187562 +1    0.9069402 +1     0     0     0
  H     3.54155403 +1   -0.8272831 +1   -0.5744926 +1     0     0     0
  H    -3.79966069 +1   -0.2630535 +1    1.1816989 +1     0     0     0
  H    -2.69030033 +1    0.6142057 +1   -1.4638061 +1     0     0     0
  H    -4.86239084 +1   -0.1690566 +1   -2.4509571 +1     0     0     0
  H    -4.01224425 +1   -1.5251035 +1   -1.6896854 +1     0     0     0
  H    -5.39938282 +1   -0.7927236 +1   -0.8840339 +1     0     0     0
  H    -5.16374714 +1    1.5891761 +1    0.1501832 +1     0     0     0
  H    -4.64674722 +1    2.2085464 +1   -1.4178668 +1     0     0     0
  H    -3.62426045 +1    2.4505133 +1    0.0036248 +1     0     0     0
 XX     1.06750000 +0  103.4301300 +0   72.5973100 +0     6    18    28
 XX     0.95050000 +0  117.3256580 +0 -141.7349630 +0    23    10     4
 XX     6.10960400 -1    9.0711850 +0  -96.1223740 +0    32     6    25
 

          Geometry optimization using EF

     GRADIENT =  0.89133 IS LESS THAN CUTOFF =  1.00000



          VARIABLE        FUNCTION
 :         6.05960      -10.167652
 PM7 STEP=-0.05 POINT=27
 temp_scan

  C     0.92852576 +1   -0.4175201 +1    1.8569757 +1     0     0     0
  C     0.66337065 +1   -0.0537540 +1    0.4226151 +1     0     0     0
  C    -0.72489960 +1    0.0576113 +1    0.0111322 +1     0     0     0
  C    -1.76577331 +1   -0.1924612 +1    0.8435321 +1     0     0     0
  C    -1.54303688 +1   -0.5549584 +1    2.2922754 +1     0     0     0
  C    -0.19939033 +1   -1.2769436 +1    2.4406589 +1     0     0     0
  C     1.65454687 +1    0.1777647 +1   -0.4580081 +1     0     0     0
  C     3.11203319 +1    0.0990744 +1   -0.1647535 +1     0     0     0
  N    -3.10097071 +1   -0.2074469 +1    0.4565295 +1     0     0     0
  C    -3.56735615 +1    0.4137619 +1   -0.7926086 +1     0     0     0
  C    -4.51840118 +1   -0.5709687 +1   -1.4935105 +1     0     0     0
  C    -4.29228705 +1    1.7384912 +1   -0.4945756 +1     0     0     0
  H     1.88803040 +1   -0.9638884 +1    1.9530003 +1     0     0     0
  H     1.04781397 +1    0.5133761 +1    2.4486537 +1     0     0     0
  H    -0.88715365 +1    0.3357421 +1   -1.0258197 +1     0     0     0
  H    -2.35746583 +1   -1.1908222 +1    2.6893588 +1     0     0     0
  H    -1.54565706 +1    0.3730172 +1    2.9016699 +1     0     0     0
  H    -0.23517753 +1   -2.2498825 +1    1.9115788 +1     0     0     0
  H     0.00013155 +1   -1.5057102 +1    3.5023781 +1     0     0     0
  H     1.42621866 +1    0.4402547 +1   -1.4892254 +1     0     0     0
  H     3.65361812 +1    0.9394596 +1   -0.6214544 +1     0     0     0
  H     3.34262755 +1    0.1187562 +1    0.9069402 +1     0     0     0
  H     3.54155403 +1   -0.8272831 +1   -0.5744926 +1     0     0     0
  H    -3.79966069 +1   -0.2630535 +1    1.1816989 +1     0     0     0
  H    -2.69030033 +1    0.6142057 +1   -1.4638061 +1     0     0     0
  H    -4.86239084 +1   -0.1690566 +1   -2.4509571 +1     0     0     0
  H    -4.01224425 +1   -1.5251035 +1   -1.6896854 +1     0     0     0
  H    -5.39938282 +1   -0.7927236 +1   -0.8840339 +1     0     0     0
  H    -5.16374714 +1    1.5891761 +1    0.1501832 +1     0     0     0
  H    -4.64674722 +1    2.2085464 +1   -1.4178668 +1     0     0     0
  H    -3.62426045 +1    2.4505133 +1    0.0036248 +1     0     0     0
 XX     1.06750000 +0  103.4301300 +0   72.5973100 +0     6    18    28
 XX     0.95050000 +0  117.3256580 +0 -141.7349630 +0    23    10     4
 XX     6.05960400 -1    9.0711850 +0  -96.1223740 +0    32     6    25
 

          Geometry optimization using EF

     GRADIENT =  0.89133 IS LESS THAN CUTOFF =  1.00000



          VARIABLE        FUNCTION
 :         6.00960      -10.167652
 PM7 STEP=-0.05 POINT=27
 temp_scan

  C     0.92852576 +1   -0.4175201 +1    1.8569757 +1     0     0     0
  C     0.66337065 +1   -0.0537540 +1    0.4226151 +1     0     0     0
  C    -0.72489960 +1    0.0576113 +1    0.0111322 +1     0     0     0
  C    -1.76577331 +1   -0.1924612 +1    0.8435321 +1     0     0     0
  C    -1.54303688 +1   -0.5549584 +1    2.2922754 +1     0     0     0
  C    -0.19939033 +1   -1.2769436 +1    2.4406589 +1     0     0     0
  C     1.65454687 +1    0.1777647 +1   -0.4580081 +1     0     0     0
  C     3.11203319 +1    0.0990744 +1   -0.1647535 +1     0     0     0
  N    -3.10097071 +1   -0.2074469 +1    0.4565295 +1     0     0     0
  C    -3.56735615 +1    0.4137619 +1   -0.7926086 +1     0     0     0
  C    -4.51840118 +1   -0.5709687 +1   -1.4935105 +1     0     0     0
  C    -4.29228705 +1    1.7384912 +1   -0.4945756 +1     0     0     0
  H     1.88803040 +1   -0.9638884 +1    1.9530003 +1     0     0     0
  H     1.04781397 +1    0.5133761 +1    2.4486537 +1     0     0     0
  H    -0.88715365 +1    0.3357421 +1   -1.0258197 +1     0     0     0
  H    -2.35746583 +1   -1.1908222 +1    2.6893588 +1     0     0     0
  H    -1.54565706 +1    0.3730172 +1    2.9016699 +1     0     0     0
  H    -0.23517753 +1   -2.2498825 +1    1.9115788 +1     0     0     0
  H     0.00013155 +1   -1.5057102 +1    3.5023781 +1     0     0     0
  H     1.42621866 +1    0.4402547 +1   -1.4892254 +1     0     0     0
  H     3.65361812 +1    0.9394596 +1   -0.6214544 +1     0     0     0
  H     3.34262755 +1    0.1187562 +1    0.9069402 +1     0     0     0
  H     3.54155403 +1   -0.8272831 +1   -0.5744926 +1     0     0     0
  H    -3.79966069 +1   -0.2630535 +1    1.1816989 +1     0     0     0
  H    -2.69030033 +1    0.6142057 +1   -1.4638061 +1     0     0     0
  H    -4.86239084 +1   -0.1690566 +1   -2.4509571 +1     0     0     0
  H    -4.01224425 +1   -1.5251035 +1   -1.6896854 +1     0     0     0
  H    -5.39938282 +1   -0.7927236 +1   -0.8840339 +1     0     0     0
  H    -5.16374714 +1    1.5891761 +1    0.1501832 +1     0     0     0
  H    -4.64674722 +1    2.2085464 +1   -1.4178668 +1     0     0     0
  H    -3.62426045 +1    2.4505133 +1    0.0036248 +1     0     0     0
 XX     1.06750000 +0  103.4301300 +0   72.5973100 +0     6    18    28
 XX     0.95050000 +0  117.3256580 +0 -141.7349630 +0    23    10     4
 XX     6.00960400 -1    9.0711850 +0  -96.1223740 +0    32     6    25
 

          Geometry optimization using EF

     GRADIENT =  0.89133 IS LESS THAN CUTOFF =  1.00000



          VARIABLE        FUNCTION
 :         5.95960      -10.167652
 PM7 STEP=-0.05 POINT=27
 temp_scan

  C     0.92852576 +1   -0.4175201 +1    1.8569757 +1     0     0     0
  C     0.66337065 +1   -0.0537540 +1    0.4226151 +1     0     0     0
  C    -0.72489960 +1    0.0576113 +1    0.0111322 +1     0     0     0
  C    -1.76577331 +1   -0.1924612 +1    0.8435321 +1     0     0     0
  C    -1.54303688 +1   -0.5549584 +1    2.2922754 +1     0     0     0
  C    -0.19939033 +1   -1.2769436 +1    2.4406589 +1     0     0     0
  C     1.65454687 +1    0.1777647 +1   -0.4580081 +1     0     0     0
  C     3.11203319 +1    0.0990744 +1   -0.1647535 +1     0     0     0
  N    -3.10097071 +1   -0.2074469 +1    0.4565295 +1     0     0     0
  C    -3.56735615 +1    0.4137619 +1   -0.7926086 +1     0     0     0
  C    -4.51840118 +1   -0.5709687 +1   -1.4935105 +1     0     0     0
  C    -4.29228705 +1    1.7384912 +1   -0.4945756 +1     0     0     0
  H     1.88803040 +1   -0.9638884 +1    1.9530003 +1     0     0     0
  H     1.04781397 +1    0.5133761 +1    2.4486537 +1     0     0     0
  H    -0.88715365 +1    0.3357421 +1   -1.0258197 +1     0     0     0
  H    -2.35746583 +1   -1.1908222 +1    2.6893588 +1     0     0     0
  H    -1.54565706 +1    0.3730172 +1    2.9016699 +1     0     0     0
  H    -0.23517753 +1   -2.2498825 +1    1.9115788 +1     0     0     0
  H     0.00013155 +1   -1.5057102 +1    3.5023781 +1     0     0     0
  H     1.42621866 +1    0.4402547 +1   -1.4892254 +1     0     0     0
  H     3.65361812 +1    0.9394596 +1   -0.6214544 +1     0     0     0
  H     3.34262755 +1    0.1187562 +1    0.9069402 +1     0     0     0
  H     3.54155403 +1   -0.8272831 +1   -0.5744926 +1     0     0     0
  H    -3.79966069 +1   -0.2630535 +1    1.1816989 +1     0     0     0
  H    -2.69030033 +1    0.6142057 +1   -1.4638061 +1     0     0     0
  H    -4.86239084 +1   -0.1690566 +1   -2.4509571 +1     0     0     0
  H    -4.01224425 +1   -1.5251035 +1   -1.6896854 +1     0     0     0
  H    -5.39938282 +1   -0.7927236 +1   -0.8840339 +1     0     0     0
  H    -5.16374714 +1    1.5891761 +1    0.1501832 +1     0     0     0
  H    -4.64674722 +1    2.2085464 +1   -1.4178668 +1     0     0     0
  H    -3.62426045 +1    2.4505133 +1    0.0036248 +1     0     0     0
 XX     1.06750000 +0  103.4301300 +0   72.5973100 +0     6    18    28
 XX     0.95050000 +0  117.3256580 +0 -141.7349630 +0    23    10     4
 XX     5.95960400 -1    9.0711850 +0  -96.1223740 +0    32     6    25
 

          Geometry optimization using EF

     GRADIENT =  0.89133 IS LESS THAN CUTOFF =  1.00000



          VARIABLE        FUNCTION
 :         5.90960      -10.167652
 PM7 STEP=-0.05 POINT=27
 temp_scan

  C     0.92852576 +1   -0.4175201 +1    1.8569757 +1     0     0     0
  C     0.66337065 +1   -0.0537540 +1    0.4226151 +1     0     0     0
  C    -0.72489960 +1    0.0576113 +1    0.0111322 +1     0     0     0
  C    -1.76577331 +1   -0.1924612 +1    0.8435321 +1     0     0     0
  C    -1.54303688 +1   -0.5549584 +1    2.2922754 +1     0     0     0
  C    -0.19939033 +1   -1.2769436 +1    2.4406589 +1     0     0     0
  C     1.65454687 +1    0.1777647 +1   -0.4580081 +1     0     0     0
  C     3.11203319 +1    0.0990744 +1   -0.1647535 +1     0     0     0
  N    -3.10097071 +1   -0.2074469 +1    0.4565295 +1     0     0     0
  C    -3.56735615 +1    0.4137619 +1   -0.7926086 +1     0     0     0
  C    -4.51840118 +1   -0.5709687 +1   -1.4935105 +1     0     0     0
  C    -4.29228705 +1    1.7384912 +1   -0.4945756 +1     0     0     0
  H     1.88803040 +1   -0.9638884 +1    1.9530003 +1     0     0     0
  H     1.04781397 +1    0.5133761 +1    2.4486537 +1     0     0     0
  H    -0.88715365 +1    0.3357421 +1   -1.0258197 +1     0     0     0
  H    -2.35746583 +1   -1.1908222 +1    2.6893588 +1     0     0     0
  H    -1.54565706 +1    0.3730172 +1    2.9016699 +1     0     0     0
  H    -0.23517753 +1   -2.2498825 +1    1.9115788 +1     0     0     0
  H     0.00013155 +1   -1.5057102 +1    3.5023781 +1     0     0     0
  H     1.42621866 +1    0.4402547 +1   -1.4892254 +1     0     0     0
  H     3.65361812 +1    0.9394596 +1   -0.6214544 +1     0     0     0
  H     3.34262755 +1    0.1187562 +1    0.9069402 +1     0     0     0
  H     3.54155403 +1   -0.8272831 +1   -0.5744926 +1     0     0     0
  H    -3.79966069 +1   -0.2630535 +1    1.1816989 +1     0     0     0
  H    -2.69030033 +1    0.6142057 +1   -1.4638061 +1     0     0     0
  H    -4.86239084 +1   -0.1690566 +1   -2.4509571 +1     0     0     0
  H    -4.01224425 +1   -1.5251035 +1   -1.6896854 +1     0     0     0
  H    -5.39938282 +1   -0.7927236 +1   -0.8840339 +1     0     0     0
  H    -5.16374714 +1    1.5891761 +1    0.1501832 +1     0     0     0
  H    -4.64674722 +1    2.2085464 +1   -1.4178668 +1     0     0     0
  H    -3.62426045 +1    2.4505133 +1    0.0036248 +1     0     0     0
 XX     1.06750000 +0  103.4301300 +0   72.5973100 +0     6    18    28
 XX     0.95050000 +0  117.3256580 +0 -141.7349630 +0    23    10     4
 XX     5.90960400 -1    9.0711850 +0  -96.1223740 +0    32     6    25
 

          Geometry optimization using EF

     GRADIENT =  0.89133 IS LESS THAN CUTOFF =  1.00000



          VARIABLE        FUNCTION
 :         5.85960      -10.167652
 PM7 STEP=-0.05 POINT=27
 temp_scan

  C     0.92852576 +1   -0.4175201 +1    1.8569757 +1     0     0     0
  C     0.66337065 +1   -0.0537540 +1    0.4226151 +1     0     0     0
  C    -0.72489960 +1    0.0576113 +1    0.0111322 +1     0     0     0
  C    -1.76577331 +1   -0.1924612 +1    0.8435321 +1     0     0     0
  C    -1.54303688 +1   -0.5549584 +1    2.2922754 +1     0     0     0
  C    -0.19939033 +1   -1.2769436 +1    2.4406589 +1     0     0     0
  C     1.65454687 +1    0.1777647 +1   -0.4580081 +1     0     0     0
  C     3.11203319 +1    0.0990744 +1   -0.1647535 +1     0     0     0
  N    -3.10097071 +1   -0.2074469 +1    0.4565295 +1     0     0     0
  C    -3.56735615 +1    0.4137619 +1   -0.7926086 +1     0     0     0
  C    -4.51840118 +1   -0.5709687 +1   -1.4935105 +1     0     0     0
  C    -4.29228705 +1    1.7384912 +1   -0.4945756 +1     0     0     0
  H     1.88803040 +1   -0.9638884 +1    1.9530003 +1     0     0     0
  H     1.04781397 +1    0.5133761 +1    2.4486537 +1     0     0     0
  H    -0.88715365 +1    0.3357421 +1   -1.0258197 +1     0     0     0
  H    -2.35746583 +1   -1.1908222 +1    2.6893588 +1     0     0     0
  H    -1.54565706 +1    0.3730172 +1    2.9016699 +1     0     0     0
  H    -0.23517753 +1   -2.2498825 +1    1.9115788 +1     0     0     0
  H     0.00013155 +1   -1.5057102 +1    3.5023781 +1     0     0     0
  H     1.42621866 +1    0.4402547 +1   -1.4892254 +1     0     0     0
  H     3.65361812 +1    0.9394596 +1   -0.6214544 +1     0     0     0
  H     3.34262755 +1    0.1187562 +1    0.9069402 +1     0     0     0
  H     3.54155403 +1   -0.8272831 +1   -0.5744926 +1     0     0     0
  H    -3.79966069 +1   -0.2630535 +1    1.1816989 +1     0     0     0
  H    -2.69030033 +1    0.6142057 +1   -1.4638061 +1     0     0     0
  H    -4.86239084 +1   -0.1690566 +1   -2.4509571 +1     0     0     0
  H    -4.01224425 +1   -1.5251035 +1   -1.6896854 +1     0     0     0
  H    -5.39938282 +1   -0.7927236 +1   -0.8840339 +1     0     0     0
  H    -5.16374714 +1    1.5891761 +1    0.1501832 +1     0     0     0
  H    -4.64674722 +1    2.2085464 +1   -1.4178668 +1     0     0     0
  H    -3.62426045 +1    2.4505133 +1    0.0036248 +1     0     0     0
 XX     1.06750000 +0  103.4301300 +0   72.5973100 +0     6    18    28
 XX     0.95050000 +0  117.3256580 +0 -141.7349630 +0    23    10     4
 XX     5.85960400 -1    9.0711850 +0  -96.1223740 +0    32     6    25
 

          Geometry optimization using EF

     GRADIENT =  0.89133 IS LESS THAN CUTOFF =  1.00000



          VARIABLE        FUNCTION
 :         5.80960      -10.167652
 PM7 STEP=-0.05 POINT=27
 temp_scan

  C     0.92852576 +1   -0.4175201 +1    1.8569757 +1     0     0     0
  C     0.66337065 +1   -0.0537540 +1    0.4226151 +1     0     0     0
  C    -0.72489960 +1    0.0576113 +1    0.0111322 +1     0     0     0
  C    -1.76577331 +1   -0.1924612 +1    0.8435321 +1     0     0     0
  C    -1.54303688 +1   -0.5549584 +1    2.2922754 +1     0     0     0
  C    -0.19939033 +1   -1.2769436 +1    2.4406589 +1     0     0     0
  C     1.65454687 +1    0.1777647 +1   -0.4580081 +1     0     0     0
  C     3.11203319 +1    0.0990744 +1   -0.1647535 +1     0     0     0
  N    -3.10097071 +1   -0.2074469 +1    0.4565295 +1     0     0     0
  C    -3.56735615 +1    0.4137619 +1   -0.7926086 +1     0     0     0
  C    -4.51840118 +1   -0.5709687 +1   -1.4935105 +1     0     0     0
  C    -4.29228705 +1    1.7384912 +1   -0.4945756 +1     0     0     0
  H     1.88803040 +1   -0.9638884 +1    1.9530003 +1     0     0     0
  H     1.04781397 +1    0.5133761 +1    2.4486537 +1     0     0     0
  H    -0.88715365 +1    0.3357421 +1   -1.0258197 +1     0     0     0
  H    -2.35746583 +1   -1.1908222 +1    2.6893588 +1     0     0     0
  H    -1.54565706 +1    0.3730172 +1    2.9016699 +1     0     0     0
  H    -0.23517753 +1   -2.2498825 +1    1.9115788 +1     0     0     0
  H     0.00013155 +1   -1.5057102 +1    3.5023781 +1     0     0     0
  H     1.42621866 +1    0.4402547 +1   -1.4892254 +1     0     0     0
  H     3.65361812 +1    0.9394596 +1   -0.6214544 +1     0     0     0
  H     3.34262755 +1    0.1187562 +1    0.9069402 +1     0     0     0
  H     3.54155403 +1   -0.8272831 +1   -0.5744926 +1     0     0     0
  H    -3.79966069 +1   -0.2630535 +1    1.1816989 +1     0     0     0
  H    -2.69030033 +1    0.6142057 +1   -1.4638061 +1     0     0     0
  H    -4.86239084 +1   -0.1690566 +1   -2.4509571 +1     0     0     0
  H    -4.01224425 +1   -1.5251035 +1   -1.6896854 +1     0     0     0
  H    -5.39938282 +1   -0.7927236 +1   -0.8840339 +1     0     0     0
  H    -5.16374714 +1    1.5891761 +1    0.1501832 +1     0     0     0
  H    -4.64674722 +1    2.2085464 +1   -1.4178668 +1     0     0     0
  H    -3.62426045 +1    2.4505133 +1    0.0036248 +1     0     0     0
 XX     1.06750000 +0  103.4301300 +0   72.5973100 +0     6    18    28
 XX     0.95050000 +0  117.3256580 +0 -141.7349630 +0    23    10     4
 XX     5.80960400 -1    9.0711850 +0  -96.1223740 +0    32     6    25
 

          Geometry optimization using EF

     GRADIENT =  0.89133 IS LESS THAN CUTOFF =  1.00000



          VARIABLE        FUNCTION
 :         5.75960      -10.167652
 PM7 STEP=-0.05 POINT=27
 temp_scan

  C     0.92852576 +1   -0.4175201 +1    1.8569757 +1     0     0     0
  C     0.66337065 +1   -0.0537540 +1    0.4226151 +1     0     0     0
  C    -0.72489960 +1    0.0576113 +1    0.0111322 +1     0     0     0
  C    -1.76577331 +1   -0.1924612 +1    0.8435321 +1     0     0     0
  C    -1.54303688 +1   -0.5549584 +1    2.2922754 +1     0     0     0
  C    -0.19939033 +1   -1.2769436 +1    2.4406589 +1     0     0     0
  C     1.65454687 +1    0.1777647 +1   -0.4580081 +1     0     0     0
  C     3.11203319 +1    0.0990744 +1   -0.1647535 +1     0     0     0
  N    -3.10097071 +1   -0.2074469 +1    0.4565295 +1     0     0     0
  C    -3.56735615 +1    0.4137619 +1   -0.7926086 +1     0     0     0
  C    -4.51840118 +1   -0.5709687 +1   -1.4935105 +1     0     0     0
  C    -4.29228705 +1    1.7384912 +1   -0.4945756 +1     0     0     0
  H     1.88803040 +1   -0.9638884 +1    1.9530003 +1     0     0     0
  H     1.04781397 +1    0.5133761 +1    2.4486537 +1     0     0     0
  H    -0.88715365 +1    0.3357421 +1   -1.0258197 +1     0     0     0
  H    -2.35746583 +1   -1.1908222 +1    2.6893588 +1     0     0     0
  H    -1.54565706 +1    0.3730172 +1    2.9016699 +1     0     0     0
  H    -0.23517753 +1   -2.2498825 +1    1.9115788 +1     0     0     0
  H     0.00013155 +1   -1.5057102 +1    3.5023781 +1     0     0     0
  H     1.42621866 +1    0.4402547 +1   -1.4892254 +1     0     0     0
  H     3.65361812 +1    0.9394596 +1   -0.6214544 +1     0     0     0
  H     3.34262755 +1    0.1187562 +1    0.9069402 +1     0     0     0
  H     3.54155403 +1   -0.8272831 +1   -0.5744926 +1     0     0     0
  H    -3.79966069 +1   -0.2630535 +1    1.1816989 +1     0     0     0
  H    -2.69030033 +1    0.6142057 +1   -1.4638061 +1     0     0     0
  H    -4.86239084 +1   -0.1690566 +1   -2.4509571 +1     0     0     0
  H    -4.01224425 +1   -1.5251035 +1   -1.6896854 +1     0     0     0
  H    -5.39938282 +1   -0.7927236 +1   -0.8840339 +1     0     0     0
  H    -5.16374714 +1    1.5891761 +1    0.1501832 +1     0     0     0
  H    -4.64674722 +1    2.2085464 +1   -1.4178668 +1     0     0     0
  H    -3.62426045 +1    2.4505133 +1    0.0036248 +1     0     0     0
 XX     1.06750000 +0  103.4301300 +0   72.5973100 +0     6    18    28
 XX     0.95050000 +0  117.3256580 +0 -141.7349630 +0    23    10     4
 XX     5.75960400 -1    9.0711850 +0  -96.1223740 +0    32     6    25
 

          Geometry optimization using EF

     GRADIENT =  0.89133 IS LESS THAN CUTOFF =  1.00000



          VARIABLE        FUNCTION
 :         5.70960      -10.167652
 PM7 STEP=-0.05 POINT=27
 temp_scan

  C     0.92852576 +1   -0.4175201 +1    1.8569757 +1     0     0     0
  C     0.66337065 +1   -0.0537540 +1    0.4226151 +1     0     0     0
  C    -0.72489960 +1    0.0576113 +1    0.0111322 +1     0     0     0
  C    -1.76577331 +1   -0.1924612 +1    0.8435321 +1     0     0     0
  C    -1.54303688 +1   -0.5549584 +1    2.2922754 +1     0     0     0
  C    -0.19939033 +1   -1.2769436 +1    2.4406589 +1     0     0     0
  C     1.65454687 +1    0.1777647 +1   -0.4580081 +1     0     0     0
  C     3.11203319 +1    0.0990744 +1   -0.1647535 +1     0     0     0
  N    -3.10097071 +1   -0.2074469 +1    0.4565295 +1     0     0     0
  C    -3.56735615 +1    0.4137619 +1   -0.7926086 +1     0     0     0
  C    -4.51840118 +1   -0.5709687 +1   -1.4935105 +1     0     0     0
  C    -4.29228705 +1    1.7384912 +1   -0.4945756 +1     0     0     0
  H     1.88803040 +1   -0.9638884 +1    1.9530003 +1     0     0     0
  H     1.04781397 +1    0.5133761 +1    2.4486537 +1     0     0     0
  H    -0.88715365 +1    0.3357421 +1   -1.0258197 +1     0     0     0
  H    -2.35746583 +1   -1.1908222 +1    2.6893588 +1     0     0     0
  H    -1.54565706 +1    0.3730172 +1    2.9016699 +1     0     0     0
  H    -0.23517753 +1   -2.2498825 +1    1.9115788 +1     0     0     0
  H     0.00013155 +1   -1.5057102 +1    3.5023781 +1     0     0     0
  H     1.42621866 +1    0.4402547 +1   -1.4892254 +1     0     0     0
  H     3.65361812 +1    0.9394596 +1   -0.6214544 +1     0     0     0
  H     3.34262755 +1    0.1187562 +1    0.9069402 +1     0     0     0
  H     3.54155403 +1   -0.8272831 +1   -0.5744926 +1     0     0     0
  H    -3.79966069 +1   -0.2630535 +1    1.1816989 +1     0     0     0
  H    -2.69030033 +1    0.6142057 +1   -1.4638061 +1     0     0     0
  H    -4.86239084 +1   -0.1690566 +1   -2.4509571 +1     0     0     0
  H    -4.01224425 +1   -1.5251035 +1   -1.6896854 +1     0     0     0
  H    -5.39938282 +1   -0.7927236 +1   -0.8840339 +1     0     0     0
  H    -5.16374714 +1    1.5891761 +1    0.1501832 +1     0     0     0
  H    -4.64674722 +1    2.2085464 +1   -1.4178668 +1     0     0     0
  H    -3.62426045 +1    2.4505133 +1    0.0036248 +1     0     0     0
 XX     1.06750000 +0  103.4301300 +0   72.5973100 +0     6    18    28
 XX     0.95050000 +0  117.3256580 +0 -141.7349630 +0    23    10     4
 XX     5.70960400 -1    9.0711850 +0  -96.1223740 +0    32     6    25
 

          Geometry optimization using EF

     GRADIENT =  0.89133 IS LESS THAN CUTOFF =  1.00000



          VARIABLE        FUNCTION
 :         5.65960      -10.167652
 PM7 STEP=-0.05 POINT=27
 temp_scan

  C     0.92852576 +1   -0.4175201 +1    1.8569757 +1     0     0     0
  C     0.66337065 +1   -0.0537540 +1    0.4226151 +1     0     0     0
  C    -0.72489960 +1    0.0576113 +1    0.0111322 +1     0     0     0
  C    -1.76577331 +1   -0.1924612 +1    0.8435321 +1     0     0     0
  C    -1.54303688 +1   -0.5549584 +1    2.2922754 +1     0     0     0
  C    -0.19939033 +1   -1.2769436 +1    2.4406589 +1     0     0     0
  C     1.65454687 +1    0.1777647 +1   -0.4580081 +1     0     0     0
  C     3.11203319 +1    0.0990744 +1   -0.1647535 +1     0     0     0
  N    -3.10097071 +1   -0.2074469 +1    0.4565295 +1     0     0     0
  C    -3.56735615 +1    0.4137619 +1   -0.7926086 +1     0     0     0
  C    -4.51840118 +1   -0.5709687 +1   -1.4935105 +1     0     0     0
  C    -4.29228705 +1    1.7384912 +1   -0.4945756 +1     0     0     0
  H     1.88803040 +1   -0.9638884 +1    1.9530003 +1     0     0     0
  H     1.04781397 +1    0.5133761 +1    2.4486537 +1     0     0     0
  H    -0.88715365 +1    0.3357421 +1   -1.0258197 +1     0     0     0
  H    -2.35746583 +1   -1.1908222 +1    2.6893588 +1     0     0     0
  H    -1.54565706 +1    0.3730172 +1    2.9016699 +1     0     0     0
  H    -0.23517753 +1   -2.2498825 +1    1.9115788 +1     0     0     0
  H     0.00013155 +1   -1.5057102 +1    3.5023781 +1     0     0     0
  H     1.42621866 +1    0.4402547 +1   -1.4892254 +1     0     0     0
  H     3.65361812 +1    0.9394596 +1   -0.6214544 +1     0     0     0
  H     3.34262755 +1    0.1187562 +1    0.9069402 +1     0     0     0
  H     3.54155403 +1   -0.8272831 +1   -0.5744926 +1     0     0     0
  H    -3.79966069 +1   -0.2630535 +1    1.1816989 +1     0     0     0
  H    -2.69030033 +1    0.6142057 +1   -1.4638061 +1     0     0     0
  H    -4.86239084 +1   -0.1690566 +1   -2.4509571 +1     0     0     0
  H    -4.01224425 +1   -1.5251035 +1   -1.6896854 +1     0     0     0
  H    -5.39938282 +1   -0.7927236 +1   -0.8840339 +1     0     0     0
  H    -5.16374714 +1    1.5891761 +1    0.1501832 +1     0     0     0
  H    -4.64674722 +1    2.2085464 +1   -1.4178668 +1     0     0     0
  H    -3.62426045 +1    2.4505133 +1    0.0036248 +1     0     0     0
 XX     1.06750000 +0  103.4301300 +0   72.5973100 +0     6    18    28
 XX     0.95050000 +0  117.3256580 +0 -141.7349630 +0    23    10     4
 XX     5.65960400 -1    9.0711850 +0  -96.1223740 +0    32     6    25
 

          Geometry optimization using EF

     GRADIENT =  0.89133 IS LESS THAN CUTOFF =  1.00000



          VARIABLE        FUNCTION
 :         5.60960      -10.167652
 PM7 STEP=-0.05 POINT=27
 temp_scan

  C     0.92852576 +1   -0.4175201 +1    1.8569757 +1     0     0     0
  C     0.66337065 +1   -0.0537540 +1    0.4226151 +1     0     0     0
  C    -0.72489960 +1    0.0576113 +1    0.0111322 +1     0     0     0
  C    -1.76577331 +1   -0.1924612 +1    0.8435321 +1     0     0     0
  C    -1.54303688 +1   -0.5549584 +1    2.2922754 +1     0     0     0
  C    -0.19939033 +1   -1.2769436 +1    2.4406589 +1     0     0     0
  C     1.65454687 +1    0.1777647 +1   -0.4580081 +1     0     0     0
  C     3.11203319 +1    0.0990744 +1   -0.1647535 +1     0     0     0
  N    -3.10097071 +1   -0.2074469 +1    0.4565295 +1     0     0     0
  C    -3.56735615 +1    0.4137619 +1   -0.7926086 +1     0     0     0
  C    -4.51840118 +1   -0.5709687 +1   -1.4935105 +1     0     0     0
  C    -4.29228705 +1    1.7384912 +1   -0.4945756 +1     0     0     0
  H     1.88803040 +1   -0.9638884 +1    1.9530003 +1     0     0     0
  H     1.04781397 +1    0.5133761 +1    2.4486537 +1     0     0     0
  H    -0.88715365 +1    0.3357421 +1   -1.0258197 +1     0     0     0
  H    -2.35746583 +1   -1.1908222 +1    2.6893588 +1     0     0     0
  H    -1.54565706 +1    0.3730172 +1    2.9016699 +1     0     0     0
  H    -0.23517753 +1   -2.2498825 +1    1.9115788 +1     0     0     0
  H     0.00013155 +1   -1.5057102 +1    3.5023781 +1     0     0     0
  H     1.42621866 +1    0.4402547 +1   -1.4892254 +1     0     0     0
  H     3.65361812 +1    0.9394596 +1   -0.6214544 +1     0     0     0
  H     3.34262755 +1    0.1187562 +1    0.9069402 +1     0     0     0
  H     3.54155403 +1   -0.8272831 +1   -0.5744926 +1     0     0     0
  H    -3.79966069 +1   -0.2630535 +1    1.1816989 +1     0     0     0
  H    -2.69030033 +1    0.6142057 +1   -1.4638061 +1     0     0     0
  H    -4.86239084 +1   -0.1690566 +1   -2.4509571 +1     0     0     0
  H    -4.01224425 +1   -1.5251035 +1   -1.6896854 +1     0     0     0
  H    -5.39938282 +1   -0.7927236 +1   -0.8840339 +1     0     0     0
  H    -5.16374714 +1    1.5891761 +1    0.1501832 +1     0     0     0
  H    -4.64674722 +1    2.2085464 +1   -1.4178668 +1     0     0     0
  H    -3.62426045 +1    2.4505133 +1    0.0036248 +1     0     0     0
 XX     1.06750000 +0  103.4301300 +0   72.5973100 +0     6    18    28
 XX     0.95050000 +0  117.3256580 +0 -141.7349630 +0    23    10     4
 XX     5.60960400 -1    9.0711850 +0  -96.1223740 +0    32     6    25
 

          Geometry optimization using EF

     GRADIENT =  0.89133 IS LESS THAN CUTOFF =  1.00000



          VARIABLE        FUNCTION
 :         5.55960      -10.167652
 PM7 STEP=-0.05 POINT=27
 temp_scan

  C     0.92852576 +1   -0.4175201 +1    1.8569757 +1     0     0     0
  C     0.66337065 +1   -0.0537540 +1    0.4226151 +1     0     0     0
  C    -0.72489960 +1    0.0576113 +1    0.0111322 +1     0     0     0
  C    -1.76577331 +1   -0.1924612 +1    0.8435321 +1     0     0     0
  C    -1.54303688 +1   -0.5549584 +1    2.2922754 +1     0     0     0
  C    -0.19939033 +1   -1.2769436 +1    2.4406589 +1     0     0     0
  C     1.65454687 +1    0.1777647 +1   -0.4580081 +1     0     0     0
  C     3.11203319 +1    0.0990744 +1   -0.1647535 +1     0     0     0
  N    -3.10097071 +1   -0.2074469 +1    0.4565295 +1     0     0     0
  C    -3.56735615 +1    0.4137619 +1   -0.7926086 +1     0     0     0
  C    -4.51840118 +1   -0.5709687 +1   -1.4935105 +1     0     0     0
  C    -4.29228705 +1    1.7384912 +1   -0.4945756 +1     0     0     0
  H     1.88803040 +1   -0.9638884 +1    1.9530003 +1     0     0     0
  H     1.04781397 +1    0.5133761 +1    2.4486537 +1     0     0     0
  H    -0.88715365 +1    0.3357421 +1   -1.0258197 +1     0     0     0
  H    -2.35746583 +1   -1.1908222 +1    2.6893588 +1     0     0     0
  H    -1.54565706 +1    0.3730172 +1    2.9016699 +1     0     0     0
  H    -0.23517753 +1   -2.2498825 +1    1.9115788 +1     0     0     0
  H     0.00013155 +1   -1.5057102 +1    3.5023781 +1     0     0     0
  H     1.42621866 +1    0.4402547 +1   -1.4892254 +1     0     0     0
  H     3.65361812 +1    0.9394596 +1   -0.6214544 +1     0     0     0
  H     3.34262755 +1    0.1187562 +1    0.9069402 +1     0     0     0
  H     3.54155403 +1   -0.8272831 +1   -0.5744926 +1     0     0     0
  H    -3.79966069 +1   -0.2630535 +1    1.1816989 +1     0     0     0
  H    -2.69030033 +1    0.6142057 +1   -1.4638061 +1     0     0     0
  H    -4.86239084 +1   -0.1690566 +1   -2.4509571 +1     0     0     0
  H    -4.01224425 +1   -1.5251035 +1   -1.6896854 +1     0     0     0
  H    -5.39938282 +1   -0.7927236 +1   -0.8840339 +1     0     0     0
  H    -5.16374714 +1    1.5891761 +1    0.1501832 +1     0     0     0
  H    -4.64674722 +1    2.2085464 +1   -1.4178668 +1     0     0     0
  H    -3.62426045 +1    2.4505133 +1    0.0036248 +1     0     0     0
 XX     1.06750000 +0  103.4301300 +0   72.5973100 +0     6    18    28
 XX     0.95050000 +0  117.3256580 +0 -141.7349630 +0    23    10     4
 XX     5.55960400 -1    9.0711850 +0  -96.1223740 +0    32     6    25
 

          Geometry optimization using EF

     GRADIENT =  0.89133 IS LESS THAN CUTOFF =  1.00000



          VARIABLE        FUNCTION
 :         5.50960      -10.167652
 PM7 STEP=-0.05 POINT=27
 temp_scan

  C     0.92852576 +1   -0.4175201 +1    1.8569757 +1     0     0     0
  C     0.66337065 +1   -0.0537540 +1    0.4226151 +1     0     0     0
  C    -0.72489960 +1    0.0576113 +1    0.0111322 +1     0     0     0
  C    -1.76577331 +1   -0.1924612 +1    0.8435321 +1     0     0     0
  C    -1.54303688 +1   -0.5549584 +1    2.2922754 +1     0     0     0
  C    -0.19939033 +1   -1.2769436 +1    2.4406589 +1     0     0     0
  C     1.65454687 +1    0.1777647 +1   -0.4580081 +1     0     0     0
  C     3.11203319 +1    0.0990744 +1   -0.1647535 +1     0     0     0
  N    -3.10097071 +1   -0.2074469 +1    0.4565295 +1     0     0     0
  C    -3.56735615 +1    0.4137619 +1   -0.7926086 +1     0     0     0
  C    -4.51840118 +1   -0.5709687 +1   -1.4935105 +1     0     0     0
  C    -4.29228705 +1    1.7384912 +1   -0.4945756 +1     0     0     0
  H     1.88803040 +1   -0.9638884 +1    1.9530003 +1     0     0     0
  H     1.04781397 +1    0.5133761 +1    2.4486537 +1     0     0     0
  H    -0.88715365 +1    0.3357421 +1   -1.0258197 +1     0     0     0
  H    -2.35746583 +1   -1.1908222 +1    2.6893588 +1     0     0     0
  H    -1.54565706 +1    0.3730172 +1    2.9016699 +1     0     0     0
  H    -0.23517753 +1   -2.2498825 +1    1.9115788 +1     0     0     0
  H     0.00013155 +1   -1.5057102 +1    3.5023781 +1     0     0     0
  H     1.42621866 +1    0.4402547 +1   -1.4892254 +1     0     0     0
  H     3.65361812 +1    0.9394596 +1   -0.6214544 +1     0     0     0
  H     3.34262755 +1    0.1187562 +1    0.9069402 +1     0     0     0
  H     3.54155403 +1   -0.8272831 +1   -0.5744926 +1     0     0     0
  H    -3.79966069 +1   -0.2630535 +1    1.1816989 +1     0     0     0
  H    -2.69030033 +1    0.6142057 +1   -1.4638061 +1     0     0     0
  H    -4.86239084 +1   -0.1690566 +1   -2.4509571 +1     0     0     0
  H    -4.01224425 +1   -1.5251035 +1   -1.6896854 +1     0     0     0
  H    -5.39938282 +1   -0.7927236 +1   -0.8840339 +1     0     0     0
  H    -5.16374714 +1    1.5891761 +1    0.1501832 +1     0     0     0
  H    -4.64674722 +1    2.2085464 +1   -1.4178668 +1     0     0     0
  H    -3.62426045 +1    2.4505133 +1    0.0036248 +1     0     0     0
 XX     1.06750000 +0  103.4301300 +0   72.5973100 +0     6    18    28
 XX     0.95050000 +0  117.3256580 +0 -141.7349630 +0    23    10     4
 XX     5.50960400 -1    9.0711850 +0  -96.1223740 +0    32     6    25
 

          Geometry optimization using EF

     GRADIENT =  0.89133 IS LESS THAN CUTOFF =  1.00000



          VARIABLE        FUNCTION
 :         5.45960      -10.167652
 PM7 STEP=-0.05 POINT=27
 temp_scan

  C     0.92852576 +1   -0.4175201 +1    1.8569757 +1     0     0     0
  C     0.66337065 +1   -0.0537540 +1    0.4226151 +1     0     0     0
  C    -0.72489960 +1    0.0576113 +1    0.0111322 +1     0     0     0
  C    -1.76577331 +1   -0.1924612 +1    0.8435321 +1     0     0     0
  C    -1.54303688 +1   -0.5549584 +1    2.2922754 +1     0     0     0
  C    -0.19939033 +1   -1.2769436 +1    2.4406589 +1     0     0     0
  C     1.65454687 +1    0.1777647 +1   -0.4580081 +1     0     0     0
  C     3.11203319 +1    0.0990744 +1   -0.1647535 +1     0     0     0
  N    -3.10097071 +1   -0.2074469 +1    0.4565295 +1     0     0     0
  C    -3.56735615 +1    0.4137619 +1   -0.7926086 +1     0     0     0
  C    -4.51840118 +1   -0.5709687 +1   -1.4935105 +1     0     0     0
  C    -4.29228705 +1    1.7384912 +1   -0.4945756 +1     0     0     0
  H     1.88803040 +1   -0.9638884 +1    1.9530003 +1     0     0     0
  H     1.04781397 +1    0.5133761 +1    2.4486537 +1     0     0     0
  H    -0.88715365 +1    0.3357421 +1   -1.0258197 +1     0     0     0
  H    -2.35746583 +1   -1.1908222 +1    2.6893588 +1     0     0     0
  H    -1.54565706 +1    0.3730172 +1    2.9016699 +1     0     0     0
  H    -0.23517753 +1   -2.2498825 +1    1.9115788 +1     0     0     0
  H     0.00013155 +1   -1.5057102 +1    3.5023781 +1     0     0     0
  H     1.42621866 +1    0.4402547 +1   -1.4892254 +1     0     0     0
  H     3.65361812 +1    0.9394596 +1   -0.6214544 +1     0     0     0
  H     3.34262755 +1    0.1187562 +1    0.9069402 +1     0     0     0
  H     3.54155403 +1   -0.8272831 +1   -0.5744926 +1     0     0     0
  H    -3.79966069 +1   -0.2630535 +1    1.1816989 +1     0     0     0
  H    -2.69030033 +1    0.6142057 +1   -1.4638061 +1     0     0     0
  H    -4.86239084 +1   -0.1690566 +1   -2.4509571 +1     0     0     0
  H    -4.01224425 +1   -1.5251035 +1   -1.6896854 +1     0     0     0
  H    -5.39938282 +1   -0.7927236 +1   -0.8840339 +1     0     0     0
  H    -5.16374714 +1    1.5891761 +1    0.1501832 +1     0     0     0
  H    -4.64674722 +1    2.2085464 +1   -1.4178668 +1     0     0     0
  H    -3.62426045 +1    2.4505133 +1    0.0036248 +1     0     0     0
 XX     1.06750000 +0  103.4301300 +0   72.5973100 +0     6    18    28
 XX     0.95050000 +0  117.3256580 +0 -141.7349630 +0    23    10     4
 XX     5.45960400 -1    9.0711850 +0  -96.1223740 +0    32     6    25
 

                POINTS ON REACTION PATH 
                AND CORRESPONDING HEATS


       6.75960400       6.70960400       6.65960400       6.60960400       6.55960400       6.50960400       6.45960400       6.40960400
     -10.16767114     -10.16765223     -10.16765223     -10.16765223     -10.16765223     -10.16765223     -10.16765223     -10.16765223
       6.35960400       6.30960400       6.25960400       6.20960400       6.15960400       6.10960400       6.05960400       6.00960400
     -10.16765223     -10.16765223     -10.16765223     -10.16765223     -10.16765223     -10.16765223     -10.16765223     -10.16765223
       5.95960400       5.90960400       5.85960400       5.80960400       5.75960400       5.70960400       5.65960400       5.60960400
     -10.16765223     -10.16765223     -10.16765223     -10.16765223     -10.16765223     -10.16765223     -10.16765223     -10.16765223
       5.55960400       5.50960400       5.45960400
     -10.16765223     -10.16765223     -10.16765223

 **********************
 *                    *
 * JOB ENDED NORMALLY *
 *                    *
 **********************



 TOTAL JOB TIME:             1.51 SECONDS

 == MOPAC DONE ==
