 *******************************************************************************
 ** Site#: 36969        For non-commercial use only    Version 21.051W 64BITS **
 *******************************************************************************
 ** Cite this program as: MOPAC2016, Version: 21.051W, James J. P. Stewart,   **
 ** Stewart Computational Chemistry, web: HTTP://OpenMOPAC.net. Days left: 269**
 *******************************************************************************
 **                                                                           **
 **                                MOPAC2016                                  **
 **                                                                           **
 *******************************************************************************

                              PM7 CALCULATION RESULTS

 *******************************************************************************
 *  CALCULATION DONE:                                Thu May 27 13:59:28 2021  *
 *  PM7        - The PM7 Hamiltonian to be used
 *  GEO-OK     - OVERRIDE INTERATOMIC DISTANCE AND OTHER SAFETY CHECKS
 *  T=         - A TIME OF 172800.0 SECONDS REQUESTED
 *  DUMP=N     - RESTART FILE WRITTEN EVERY 7200.0 SECONDS REQUESTED
 *  CYCLES=    - DO A MAXIMUM OF 500 STEPS
 *******************************************************************************
PM7 GEO-OK CYCLES=500
 temp

  ATOM    CHEMICAL      BOND LENGTH      BOND ANGLE     TWIST ANGLE 
 NUMBER    SYMBOL       (ANGSTROMS)      (DEGREES)       (DEGREES) 
   (I)                     NA:I           NB:NA:I       NC:NB:NA:I       NA    NB    NC 
     1       C         -2.66472914  *   -2.6441462  *   -1.8065420  *     0     0     0
     2       C         -2.13760052  *   -1.8795105  *   -0.6160220  *     0     0     0
     3       C         -0.72531477  *   -1.5186258  *   -0.6642206  *     0     0     0
     4       C          0.08558707  *   -1.7040869  *   -1.7274385  *     0     0     0
     5       C         -0.48064272  *   -2.2840669  *   -3.0074676  *     0     0     0
     6       C         -2.00341314  *   -2.1822963  *   -3.0992728  *     0     0     0
     7       C         -4.31893900  *   -1.8536967  *    0.7054763  *     0     0     0
     8       N          1.43431148  *   -1.3777493  *   -1.6423724  *     0     0     0
     9       C          2.48983818  *   -1.2958452  *   -2.6445006  *     0     0     0
    10       C          2.28638727  *   -0.1058852  *   -3.5748331  *     0     0     0
    11       C          2.71262874  *   -2.6052115  *   -3.3900414  *     0     0     0
    12       H         -2.47158354  *   -3.7140836  *   -1.6570223  *     0     0     0
    13       H         -3.74655643  *   -2.5216952  *   -1.9200925  *     0     0     0
    14       H         -0.31035359  *   -1.0850490  *    0.2428559  *     0     0     0
    15       H         -0.07616177  *   -1.7724934  *   -3.8839302  *     0     0     0
    16       H         -0.18416651  *   -3.3381746  *   -3.0738640  *     0     0     0
    17       H         -2.28999066  *   -1.1432190  *   -3.3095220  *     0     0     0
    18       H         -2.36308627  *   -2.7861255  *   -3.9404365  *     0     0     0
    19       H         -2.41065408  *   -0.9712780  *    1.2612208  *     0     0     0
    20       H         -4.73912500  *   -2.5650909  *   -0.0086184  *     0     0     0
    21       H         -4.91392287  *   -0.9360334  *    0.6731564  *     0     0     0
    22       H         -4.42627123  *   -2.2936299  *    1.7024054  *     0     0     0
    23       H          3.41603611  *   -1.1022876  *   -2.0872676  *     0     0     0
    24       H          2.16888757  *    0.8197435  *   -3.0004944  *     0     0     0
    25       H          1.40015512  *   -0.2153297  *   -4.2052329  *     0     0     0
    26       H          3.15033244  *    0.0168046  *   -4.2366346  *     0     0     0
    27       H          3.65960656  *   -2.5701498  *   -3.9401875  *     0     0     0
    28       H          1.92862646  *   -2.8104821  *   -4.1230332  *     0     0     0
    29       H          2.75918469  *   -3.4511056  *   -2.6959874  *     0     0     0
    30       N          5.59058033  *    0.3937937  *   -0.2045181  *     0     0     0
    31       C          4.55264712  *    1.2272145  *   -0.7866886  *     0     0     0
    32       C          3.17784505  *    0.7744302  *   -0.2693888  *     0     0     0
    33       C          4.63774078  *    1.1757558  *   -2.3012244  *     0     0     0
    34       C          4.85153543  *    1.1078478  *   -5.1026482  *     0     0     0
    35       C          4.26722085  *    0.0271358  *   -3.0215820  *     0     0     0
    36       C          5.13057770  *    2.2831217  *   -3.0096137  *     0     0     0
    37       C          5.23313494  *    2.2494767  *   -4.4014965  *     0     0     0
    38       C          4.37054378  *   -0.0031192  *   -4.4135084  *     0     0     0
    39       O          2.25341109  *    1.7598914  *   -0.2736750  *     0     0     0
    40       C          6.02895912  *    0.6081613  *    1.0634773  *     0     0     0
    41       O          6.79599289  *   -0.4378576  *    1.4406877  *     0     0     0
    42       O          5.74718354  *    1.5835108  *    1.7399409  *     0     0     0
    43       C          7.38517987  *   -0.4855104  *    2.7654718  *     0     0     0
    44       C          6.30606140  *   -0.5290973  *    3.8530137  *     0     0     0
    45       C          8.16731547  *   -1.8074497  *    2.7972619  *     0     0     0
    46       C          8.36868352  *    0.6702692  *    2.9799983  *     0     0     0
    47       H          5.71772446  *   -0.5469242  *   -0.5478499  *     0     0     0
    48       H          4.70437510  *    2.2537185  *   -0.4291444  *     0     0     0
    49       H          4.93251929  *    1.0829164  *   -6.1862304  *     0     0     0
    50       H          3.89350087  *   -0.8561822  *   -2.5061785  *     0     0     0
    51       H          5.44103141  *    3.1822740  *   -2.4803249  *     0     0     0
    52       H          5.61373681  *    3.1147496  *   -4.9385630  *     0     0     0
    53       H          4.07711072  *   -0.8956197  *   -4.9606678  *     0     0     0
    54       H          6.74094881  *   -0.7303830  *    4.8379470  *     0     0     0
    55       H          5.56460510  *   -1.3057189  *    3.6339404  *     0     0     0
    56       H          5.75863635  *    0.4156373  *    3.9242339  *     0     0     0
    57       H          8.66539161  *   -1.9629372  *    3.7600571  *     0     0     0
    58       H          7.50188068  *   -2.6585011  *    2.6102095  *     0     0     0
    59       H          8.92685815  *   -1.8300366  *    2.0069864  *     0     0     0
    60       H          8.93390246  *    0.5450701  *    3.9098685  *     0     0     0
    61       H          7.85846570  *    1.6366137  *    3.0352710  *     0     0     0
    62       H          9.07797262  *    0.7368132  *    2.1472734  *     0     0     0
    63       C         -2.26941385  *    0.4785359  *    0.6084480  *     0     0     0
    64       H         -4.27407376  *    0.1609976  *   -0.2217301  *     0     0     0
    65       H         -2.31453785  *    0.2869297  *    1.6698907  *     0     0     0
    66       C         -0.95423149  *    0.8882673  *   -0.0322064  *     0     0     0
    67       C         -2.66047291  *    0.7770759  *   -1.6797020  *     0     0     0
    68       O         -3.20826458  *    0.8376380  *   -2.7440758  *     0     0     0
    69       C         -0.30392801  *    1.3942962  *   -2.4599740  *     0     0     0
    70       C          0.10368362  *    2.7163984  *   -2.7303412  *     0     0     0
    71       C          0.20708546  *    0.2958488  *   -3.1798260  *     0     0     0
    72       C          1.08967353  *    2.8721305  *   -3.7253295  *     0     0     0
    73       C          1.15889251  *    0.4960391  *   -4.1753621  *     0     0     0
    74       H         -0.14287493  *   -0.7112287  *   -2.9546349  *     0     0     0
    75       C          1.60723567  *    1.7937144  *   -4.4408791  *     0     0     0
    76       H          1.47225611  *    3.8716363  *   -3.9485734  *     0     0     0
    77       H          1.55302948  *   -0.3494554  *   -4.7360824  *     0     0     0
    78       H          2.36271032  *    1.9627072  *   -5.2067818  *     0     0     0
    79       C         -0.39582305  *    3.9663333  *   -1.9905720  *     0     0     0
    80       C          0.45138518  *    4.1114436  *   -0.7131545  *     0     0     0
    81       H          0.43369921  *    3.1998969  *   -0.1011583  *     0     0     0
    82       H          1.50357303  *    4.3041386  *   -0.9500879  *     0     0     0
    83       H          0.09693262  *    4.9367536  *   -0.0889314  *     0     0     0
    84       C         -0.21284855  *    5.2313235  *   -2.8613460  *     0     0     0
    85       H         -0.78688761  *    5.1589052  *   -3.7916267  *     0     0     0
    86       H         -0.55705101  *    6.1249027  *   -2.3297808  *     0     0     0
    87       H          0.83617266  *    5.4058690  *   -3.1255583  *     0     0     0
    88       C         -1.89459262  *    3.8871097  *   -1.6418070  *     0     0     0
    89       H         -2.46907758  *    3.4223462  *   -2.4523195  *     0     0     0
    90       H         -2.08027175  *    3.3338971  *   -0.7188368  *     0     0     0
    91       H         -2.31797911  *    4.8862977  *   -1.4840154  *     0     0     0
    92       N         -1.26409875  *    1.0494020  *   -1.4302398  *     0     0     0
    93       O          2.86673385  *   -0.3541456  *    0.0875951  *     0     0     0
    94       H          1.56749978      43.4011644  *   69.5943215  *    93     9    79
    95       O          0.11925467  *    1.0532199  *    0.4769743  *     0     0     0
    96       H          1.41212692     128.0037853  *   38.6709053  *    95     2    41
    97       C         -3.22972620  *    0.4164943  *   -0.3186825  *     0     0     0
    98       C          2.12852486      65.4607223  *  -97.1942673  *    97     5    11
 


          CARTESIAN COORDINATES 

    NO.       ATOM           X           Y           Z

     1         C         -2.6647     -2.6441     -1.8065
     2         C         -2.1376     -1.8795     -0.6160
     3         C         -0.7253     -1.5186     -0.6642
     4         C          0.0856     -1.7041     -1.7274
     5         C         -0.4806     -2.2841     -3.0075
     6         C         -2.0034     -2.1823     -3.0993
     7         C         -4.3189     -1.8537      0.7055
     8         N          1.4343     -1.3777     -1.6424
     9         C          2.4898     -1.2958     -2.6445
    10         C          2.2864     -0.1059     -3.5748
    11         C          2.7126     -2.6052     -3.3900
    12         H         -2.4716     -3.7141     -1.6570
    13         H         -3.7466     -2.5217     -1.9201
    14         H         -0.3104     -1.0850      0.2429
    15         H         -0.0762     -1.7725     -3.8839
    16         H         -0.1842     -3.3382     -3.0739
    17         H         -2.2900     -1.1432     -3.3095
    18         H         -2.3631     -2.7861     -3.9404
    19         H         -2.4107     -0.9713      1.2612
    20         H         -4.7391     -2.5651     -0.0086
    21         H         -4.9139     -0.9360      0.6732
    22         H         -4.4263     -2.2936      1.7024
    23         H          3.4160     -1.1023     -2.0873
    24         H          2.1689      0.8197     -3.0005
    25         H          1.4002     -0.2153     -4.2052
    26         H          3.1503      0.0168     -4.2366
    27         H          3.6596     -2.5701     -3.9402
    28         H          1.9286     -2.8105     -4.1230
    29         H          2.7592     -3.4511     -2.6960
    30         N          5.5906      0.3938     -0.2045
    31         C          4.5526      1.2272     -0.7867
    32         C          3.1778      0.7744     -0.2694
    33         C          4.6377      1.1758     -2.3012
    34         C          4.8515      1.1078     -5.1026
    35         C          4.2672      0.0271     -3.0216
    36         C          5.1306      2.2831     -3.0096
    37         C          5.2331      2.2495     -4.4015
    38         C          4.3705     -0.0031     -4.4135
    39         O          2.2534      1.7599     -0.2737
    40         C          6.0290      0.6082      1.0635
    41         O          6.7960     -0.4379      1.4407
    42         O          5.7472      1.5835      1.7399
    43         C          7.3852     -0.4855      2.7655
    44         C          6.3061     -0.5291      3.8530
    45         C          8.1673     -1.8074      2.7973
    46         C          8.3687      0.6703      2.9800
    47         H          5.7177     -0.5469     -0.5478
    48         H          4.7044      2.2537     -0.4291
    49         H          4.9325      1.0829     -6.1862
    50         H          3.8935     -0.8562     -2.5062
    51         H          5.4410      3.1823     -2.4803
    52         H          5.6137      3.1147     -4.9386
    53         H          4.0771     -0.8956     -4.9607
    54         H          6.7409     -0.7304      4.8379
    55         H          5.5646     -1.3057      3.6339
    56         H          5.7586      0.4156      3.9242
    57         H          8.6654     -1.9629      3.7601
    58         H          7.5019     -2.6585      2.6102
    59         H          8.9269     -1.8300      2.0070
    60         H          8.9339      0.5451      3.9099
    61         H          7.8585      1.6366      3.0353
    62         H          9.0780      0.7368      2.1473
    63         C         -2.2694      0.4785      0.6084
    64         H         -4.2741      0.1610     -0.2217
    65         H         -2.3145      0.2869      1.6699
    66         C         -0.9542      0.8883     -0.0322
    67         C         -2.6605      0.7771     -1.6797
    68         O         -3.2083      0.8376     -2.7441
    69         C         -0.3039      1.3943     -2.4600
    70         C          0.1037      2.7164     -2.7303
    71         C          0.2071      0.2958     -3.1798
    72         C          1.0897      2.8721     -3.7253
    73         C          1.1589      0.4960     -4.1754
    74         H         -0.1429     -0.7112     -2.9546
    75         C          1.6072      1.7937     -4.4409
    76         H          1.4723      3.8716     -3.9486
    77         H          1.5530     -0.3495     -4.7361
    78         H          2.3627      1.9627     -5.2068
    79         C         -0.3958      3.9663     -1.9906
    80         C          0.4514      4.1114     -0.7132
    81         H          0.4337      3.1999     -0.1012
    82         H          1.5036      4.3041     -0.9501
    83         H          0.0969      4.9368     -0.0889
    84         C         -0.2128      5.2313     -2.8613
    85         H         -0.7869      5.1589     -3.7916
    86         H         -0.5571      6.1249     -2.3298
    87         H          0.8362      5.4059     -3.1256
    88         C         -1.8946      3.8871     -1.6418
    89         H         -2.4691      3.4223     -2.4523
    90         H         -2.0803      3.3339     -0.7188
    91         H         -2.3180      4.8863     -1.4840
    92         N         -1.2641      1.0494     -1.4302
    93         O          2.8667     -0.3541      0.0876
    94         H          1.6796     -0.9103     -0.7718
    95         O          0.1193      1.0532      0.4770
    96         H          1.4431      1.3298      0.0707
    97         C         -3.2297      0.4165     -0.3187
    98         C         -2.8790     -1.5351      0.4552

 General Reference for PM7:
 "Optimization of Parameters for Semiempirical Methods VI: More Modifications to the 
 NDDO Approximations and Re-optimization of Parameters", J. J. P. Stewart, J. Mol. Mod., 1:32, 19 (2013)
 https://link.springer.com/article/10.1007/s00894-012-1667-x

           Empirical Formula: C38 H51 N3 O6  =    98 atoms



      MOLECULAR POINT GROUP   :   C1  


      RHF CALCULATION, NO. OF DOUBLY OCCUPIED LEVELS = 127


          Geometry optimization using L-BFGS
 CYCLE:     1 TIME:   0.258 TIME LEFT:  2.00D  GRAD.:  1455.773 HEAT:  687.0629
 CYCLE:     2 TIME:   0.121 TIME LEFT:  2.00D  GRAD.:  1394.791 HEAT:  666.3174
 CYCLE:     3 TIME:   0.191 TIME LEFT:  2.00D  GRAD.:   546.609 HEAT:  287.9592
 CYCLE:     4 TIME:   0.195 TIME LEFT:  2.00D  GRAD.:  1397.061 HEAT:  666.3245
 CYCLE:     5 TIME:   0.145 TIME LEFT:  2.00D  GRAD.:   546.046 HEAT:  287.5835
 CYCLE:     6 TIME:   0.156 TIME LEFT:  2.00D  GRAD.:   966.739 HEAT:  171.9490
 CYCLE:     7 TIME:   0.207 TIME LEFT:  2.00D  GRAD.:   456.425 HEAT:  101.1136
 CYCLE:     8 TIME:   0.145 TIME LEFT:  2.00D  GRAD.:   321.055 HEAT:  83.25466
 CYCLE:     9 TIME:   0.180 TIME LEFT:  2.00D  GRAD.:   530.312 HEAT:  47.10664
 CYCLE:    10 TIME:   0.129 TIME LEFT:  2.00D  GRAD.:   465.803 HEAT:  24.34853
 CYCLE:    11 TIME:   0.141 TIME LEFT:  2.00D  GRAD.:   335.527 HEAT: -31.30211
 CYCLE:    12 TIME:   0.156 TIME LEFT:  2.00D  GRAD.:   362.173 HEAT: -60.96141
 CYCLE:    13 TIME:   0.129 TIME LEFT:  2.00D  GRAD.:   244.403 HEAT: -82.10176
 CYCLE:    14 TIME:   0.188 TIME LEFT:  2.00D  GRAD.:   253.659 HEAT: -108.8367
 CYCLE:    15 TIME:   0.145 TIME LEFT:  2.00D  GRAD.:   197.969 HEAT: -126.3397
 CYCLE:    16 TIME:   0.133 TIME LEFT:  2.00D  GRAD.:   141.975 HEAT: -151.5824
 CYCLE:    17 TIME:   0.172 TIME LEFT:  2.00D  GRAD.:   157.164 HEAT: -164.3356
 CYCLE:    18 TIME:   0.152 TIME LEFT:  2.00D  GRAD.:   144.089 HEAT: -175.5230
 CYCLE:    19 TIME:   0.156 TIME LEFT:  2.00D  GRAD.:   110.516 HEAT: -184.6216
 CYCLE:    20 TIME:   0.160 TIME LEFT:  2.00D  GRAD.:    88.589 HEAT: -191.6830
 CYCLE:    21 TIME:   0.145 TIME LEFT:  2.00D  GRAD.:   119.707 HEAT: -198.5837
 CYCLE:    22 TIME:   0.125 TIME LEFT:  2.00D  GRAD.:   147.191 HEAT: -202.8040
 CYCLE:    23 TIME:   0.141 TIME LEFT:  2.00D  GRAD.:   104.921 HEAT: -205.4656
 CYCLE:    24 TIME:   0.129 TIME LEFT:  2.00D  GRAD.:    68.814 HEAT: -207.4477
 CYCLE:    25 TIME:   0.137 TIME LEFT:  2.00D  GRAD.:    58.469 HEAT: -209.8182
 CYCLE:    26 TIME:   0.156 TIME LEFT:  2.00D  GRAD.:    96.203 HEAT: -211.7284
 CYCLE:    27 TIME:   0.145 TIME LEFT:  2.00D  GRAD.:    75.127 HEAT: -213.6659
 CYCLE:    28 TIME:   0.125 TIME LEFT:  2.00D  GRAD.:    53.940 HEAT: -214.9747
 CYCLE:    29 TIME:   0.125 TIME LEFT:  2.00D  GRAD.:    40.668 HEAT: -216.9015
 CYCLE:    30 TIME:   0.148 TIME LEFT:  2.00D  GRAD.:    40.218 HEAT: -218.2105
 CYCLE:    31 TIME:   0.145 TIME LEFT:  2.00D  GRAD.:    99.347 HEAT: -219.2031
 CYCLE:    32 TIME:   0.129 TIME LEFT:  2.00D  GRAD.:    40.590 HEAT: -220.9254
 CYCLE:    33 TIME:   0.125 TIME LEFT:  2.00D  GRAD.:    39.920 HEAT: -221.6787
 CYCLE:    34 TIME:   0.129 TIME LEFT:  2.00D  GRAD.:    41.544 HEAT: -222.6041
 CYCLE:    35 TIME:   0.125 TIME LEFT:  2.00D  GRAD.:    88.674 HEAT: -223.5842
 CYCLE:    36 TIME:   0.129 TIME LEFT:  2.00D  GRAD.:    62.196 HEAT: -224.5732
 CYCLE:    37 TIME:   0.133 TIME LEFT:  2.00D  GRAD.:    30.346 HEAT: -225.1624
 CYCLE:    38 TIME:   0.133 TIME LEFT:  2.00D  GRAD.:    30.469 HEAT: -225.4793
 CYCLE:    39 TIME:   0.148 TIME LEFT:  2.00D  GRAD.:    41.665 HEAT: -226.3954
 CYCLE:    40 TIME:   0.137 TIME LEFT:  2.00D  GRAD.:   105.824 HEAT: -226.4217
 CYCLE:    41 TIME:   0.133 TIME LEFT:  2.00D  GRAD.:    25.414 HEAT: -227.3122
 CYCLE:    42 TIME:   0.113 TIME LEFT:  2.00D  GRAD.:    20.861 HEAT: -227.4693
 CYCLE:    43 TIME:   0.160 TIME LEFT:  2.00D  GRAD.:    25.057 HEAT: -227.8600
 CYCLE:    44 TIME:   0.121 TIME LEFT:  2.00D  GRAD.:    28.764 HEAT: -228.3987
 CYCLE:    45 TIME:   0.137 TIME LEFT:  2.00D  GRAD.:    56.471 HEAT: -228.9182
 CYCLE:    46 TIME:   0.129 TIME LEFT:  2.00D  GRAD.:    39.154 HEAT: -229.4964
 CYCLE:    47 TIME:   0.129 TIME LEFT:  2.00D  GRAD.:    20.747 HEAT: -229.8764
 CYCLE:    48 TIME:   0.133 TIME LEFT:  2.00D  GRAD.:    20.021 HEAT: -230.2172
 CYCLE:    49 TIME:   0.129 TIME LEFT:  2.00D  GRAD.:    42.948 HEAT: -230.3962
 CYCLE:    50 TIME:   0.133 TIME LEFT:  2.00D  GRAD.:    25.702 HEAT: -230.6590
 CYCLE:    51 TIME:   0.133 TIME LEFT:  2.00D  GRAD.:    20.908 HEAT: -230.9186
 CYCLE:    52 TIME:   0.133 TIME LEFT:  2.00D  GRAD.:    23.631 HEAT: -231.1559
 CYCLE:    53 TIME:   0.137 TIME LEFT:  2.00D  GRAD.:    58.543 HEAT: -231.2527
 CYCLE:    54 TIME:   0.117 TIME LEFT:  2.00D  GRAD.:    21.085 HEAT: -231.5443
 CYCLE:    55 TIME:   0.117 TIME LEFT:  2.00D  GRAD.:    15.820 HEAT: -231.6735
 CYCLE:    56 TIME:   0.141 TIME LEFT:  2.00D  GRAD.:    19.361 HEAT: -231.8917
 CYCLE:    57 TIME:   0.129 TIME LEFT:  2.00D  GRAD.:    19.963 HEAT: -232.1769
 CYCLE:    58 TIME:   0.137 TIME LEFT:  2.00D  GRAD.:    56.224 HEAT: -232.2428
 CYCLE:    59 TIME:   0.133 TIME LEFT:  2.00D  GRAD.:    19.914 HEAT: -232.5540
 CYCLE:    60 TIME:   0.117 TIME LEFT:  2.00D  GRAD.:    12.305 HEAT: -232.6357
 CYCLE:    61 TIME:   0.125 TIME LEFT:  2.00D  GRAD.:    13.857 HEAT: -232.7505
 CYCLE:    62 TIME:   0.113 TIME LEFT:  2.00D  GRAD.:    19.012 HEAT: -232.9178
 CYCLE:    63 TIME:   0.109 TIME LEFT:  2.00D  GRAD.:    26.876 HEAT: -233.1340
 CYCLE:    64 TIME:   0.121 TIME LEFT:  2.00D  GRAD.:    44.181 HEAT: -233.2404
 CYCLE:    65 TIME:   0.098 TIME LEFT:  2.00D  GRAD.:    14.535 HEAT: -233.4403
 CYCLE:    66 TIME:   0.113 TIME LEFT:  2.00D  GRAD.:    13.196 HEAT: -233.5195
 CYCLE:    67 TIME:   0.098 TIME LEFT:  2.00D  GRAD.:    14.422 HEAT: -233.6654
 CYCLE:    68 TIME:   0.145 TIME LEFT:  2.00D  GRAD.:    37.252 HEAT: -233.8823
 CYCLE:    69 TIME:   0.121 TIME LEFT:  2.00D  GRAD.:    27.063 HEAT: -234.0752
 CYCLE:    70 TIME:   0.094 TIME LEFT:  2.00D  GRAD.:    12.798 HEAT: -234.2456
 CYCLE:    71 TIME:   0.090 TIME LEFT:  2.00D  GRAD.:    11.948 HEAT: -234.4593
 CYCLE:    72 TIME:   0.137 TIME LEFT:  2.00D  GRAD.:    17.176 HEAT: -234.5964
 CYCLE:    73 TIME:   0.137 TIME LEFT:  2.00D  GRAD.:    23.349 HEAT: -234.7596
 CYCLE:    74 TIME:   0.109 TIME LEFT:  2.00D  GRAD.:    19.168 HEAT: -234.9076
 CYCLE:    75 TIME:   0.102 TIME LEFT:  2.00D  GRAD.:    15.405 HEAT: -235.0145
 CYCLE:    76 TIME:   0.086 TIME LEFT:  2.00D  GRAD.:    13.199 HEAT: -235.0998
 CYCLE:    77 TIME:   0.109 TIME LEFT:  2.00D  GRAD.:    12.867 HEAT: -235.2379
 CYCLE:    78 TIME:   0.098 TIME LEFT:  2.00D  GRAD.:    42.228 HEAT: -235.3032
 CYCLE:    79 TIME:   0.105 TIME LEFT:  2.00D  GRAD.:    14.682 HEAT: -235.4416
 CYCLE:    80 TIME:   0.109 TIME LEFT:  2.00D  GRAD.:    12.027 HEAT: -235.4930
 CYCLE:    81 TIME:   0.121 TIME LEFT:  2.00D  GRAD.:    14.193 HEAT: -235.6189
 CYCLE:    82 TIME:   0.102 TIME LEFT:  2.00D  GRAD.:    25.371 HEAT: -235.7741
 CYCLE:    83 TIME:   0.121 TIME LEFT:  2.00D  GRAD.:    14.766 HEAT: -235.9195
 CYCLE:    84 TIME:   0.141 TIME LEFT:  2.00D  GRAD.:    11.668 HEAT: -236.0110
 CYCLE:    85 TIME:   0.109 TIME LEFT:  2.00D  GRAD.:    12.601 HEAT: -236.1218
 CYCLE:    86 TIME:   0.125 TIME LEFT:  2.00D  GRAD.:    15.752 HEAT: -236.2928
 CYCLE:    87 TIME:   0.141 TIME LEFT:  2.00D  GRAD.:    16.622 HEAT: -236.4782
 CYCLE:    88 TIME:   0.133 TIME LEFT:  2.00D  GRAD.:    20.904 HEAT: -236.6129
 CYCLE:    89 TIME:   0.141 TIME LEFT:  2.00D  GRAD.:    14.401 HEAT: -236.7377
 CYCLE:    90 TIME:   0.168 TIME LEFT:  2.00D  GRAD.:    12.120 HEAT: -236.8255
 CYCLE:    91 TIME:   0.148 TIME LEFT:  2.00D  GRAD.:    20.611 HEAT: -236.9359
 CYCLE:    92 TIME:   0.148 TIME LEFT:  2.00D  GRAD.:    12.752 HEAT: -237.0481
 CYCLE:    93 TIME:   0.160 TIME LEFT:  2.00D  GRAD.:    15.618 HEAT: -237.1151
 CYCLE:    94 TIME:   0.125 TIME LEFT:  2.00D  GRAD.:    12.085 HEAT: -237.1988
 CYCLE:    95 TIME:   0.160 TIME LEFT:  2.00D  GRAD.:    14.091 HEAT: -237.3130
 CYCLE:    96 TIME:   0.141 TIME LEFT:  2.00D  GRAD.:    41.867 HEAT: -237.3291
 CYCLE:    97 TIME:   0.129 TIME LEFT:  2.00D  GRAD.:    12.746 HEAT: -237.4604
 CYCLE:    98 TIME:   0.109 TIME LEFT:  2.00D  GRAD.:     9.159 HEAT: -237.4983
 CYCLE:    99 TIME:   0.121 TIME LEFT:  2.00D  GRAD.:    11.145 HEAT: -237.5782
 CYCLE:   100 TIME:   0.137 TIME LEFT:  2.00D  GRAD.:    13.366 HEAT: -237.6899
 CYCLE:   101 TIME:   0.160 TIME LEFT:  2.00D  GRAD.:    27.898 HEAT: -237.7696
 CYCLE:   102 TIME:   0.168 TIME LEFT:  2.00D  GRAD.:    18.211 HEAT: -237.8911
 CYCLE:   103 TIME:   0.152 TIME LEFT:  2.00D  GRAD.:     9.870 HEAT: -237.9466
 CYCLE:   104 TIME:   0.137 TIME LEFT:  2.00D  GRAD.:    10.301 HEAT: -237.9935
 CYCLE:   105 TIME:   0.141 TIME LEFT:  2.00D  GRAD.:    14.274 HEAT: -238.0545
 CYCLE:   106 TIME:   0.137 TIME LEFT:  2.00D  GRAD.:    24.018 HEAT: -238.1461
 CYCLE:   107 TIME:   0.102 TIME LEFT:  2.00D  GRAD.:    16.091 HEAT: -238.2301
 CYCLE:   108 TIME:   0.105 TIME LEFT:  2.00D  GRAD.:    10.101 HEAT: -238.2865
 CYCLE:   109 TIME:   0.105 TIME LEFT:  2.00D  GRAD.:    12.717 HEAT: -238.3572
 CYCLE:   110 TIME:   0.082 TIME LEFT:  2.00D  GRAD.:    13.302 HEAT: -238.4233
 CYCLE:   111 TIME:   0.137 TIME LEFT:  2.00D  GRAD.:    24.182 HEAT: -238.5123
 CYCLE:   112 TIME:   0.102 TIME LEFT:  2.00D  GRAD.:    15.615 HEAT: -238.6174
 CYCLE:   113 TIME:   0.117 TIME LEFT:  2.00D  GRAD.:    22.507 HEAT: -238.6919
 CYCLE:   114 TIME:   0.113 TIME LEFT:  2.00D  GRAD.:    15.070 HEAT: -238.7911
 CYCLE:   115 TIME:   0.148 TIME LEFT:  2.00D  GRAD.:    13.443 HEAT: -238.8544
 CYCLE:   116 TIME:   0.137 TIME LEFT:  2.00D  GRAD.:    11.545 HEAT: -238.9113
 CYCLE:   117 TIME:   0.160 TIME LEFT:  2.00D  GRAD.:    10.687 HEAT: -238.9933
 CYCLE:   118 TIME:   0.172 TIME LEFT:  2.00D  GRAD.:    17.821 HEAT: -239.0908
 CYCLE:   119 TIME:   0.152 TIME LEFT:  2.00D  GRAD.:    30.342 HEAT: -239.1310
 CYCLE:   120 TIME:   0.141 TIME LEFT:  2.00D  GRAD.:    12.625 HEAT: -239.2632
 CYCLE:   121 TIME:   0.137 TIME LEFT:  2.00D  GRAD.:     8.687 HEAT: -239.3097
 CYCLE:   122 TIME:   0.164 TIME LEFT:  2.00D  GRAD.:    10.861 HEAT: -239.3678
 CYCLE:   123 TIME:   0.152 TIME LEFT:  2.00D  GRAD.:    16.353 HEAT: -239.4492
 CYCLE:   124 TIME:   0.145 TIME LEFT:  2.00D  GRAD.:    30.820 HEAT: -239.4244
 CYCLE:   125 TIME:   0.160 TIME LEFT:  2.00D  GRAD.:    12.329 HEAT: -239.6158
 CYCLE:   126 TIME:   0.148 TIME LEFT:  2.00D  GRAD.:     8.647 HEAT: -239.6938
 CYCLE:   127 TIME:   0.172 TIME LEFT:  2.00D  GRAD.:    14.924 HEAT: -239.8091
 CYCLE:   128 TIME:   0.176 TIME LEFT:  2.00D  GRAD.:    18.702 HEAT: -239.8728
 CYCLE:   129 TIME:   0.156 TIME LEFT:  2.00D  GRAD.:    27.599 HEAT: -239.9841
 CYCLE:   130 TIME:   0.164 TIME LEFT:  2.00D  GRAD.:    10.685 HEAT: -240.0608
 CYCLE:   131 TIME:   0.148 TIME LEFT:  2.00D  GRAD.:     8.966 HEAT: -240.1145
 CYCLE:   132 TIME:   0.184 TIME LEFT:  2.00D  GRAD.:    12.555 HEAT: -240.1792
 CYCLE:   133 TIME:   0.164 TIME LEFT:  2.00D  GRAD.:    13.627 HEAT: -240.2788
 CYCLE:   134 TIME:   0.160 TIME LEFT:  2.00D  GRAD.:    32.363 HEAT: -240.2929
 CYCLE:   135 TIME:   0.164 TIME LEFT:  2.00D  GRAD.:     7.843 HEAT: -240.4017
 CYCLE:   136 TIME:   0.145 TIME LEFT:  2.00D  GRAD.:     6.770 HEAT: -240.4219
 CYCLE:   137 TIME:   0.145 TIME LEFT:  2.00D  GRAD.:     9.437 HEAT: -240.4742
 CYCLE:   138 TIME:   0.152 TIME LEFT:  2.00D  GRAD.:    15.386 HEAT: -240.5390
 CYCLE:   139 TIME:   0.145 TIME LEFT:  2.00D  GRAD.:    13.904 HEAT: -240.5981
 CYCLE:   140 TIME:   0.152 TIME LEFT:  2.00D  GRAD.:     8.606 HEAT: -240.6507
 CYCLE:   141 TIME:   0.145 TIME LEFT:  2.00D  GRAD.:    10.404 HEAT: -240.7162
 CYCLE:   142 TIME:   0.156 TIME LEFT:  2.00D  GRAD.:    16.373 HEAT: -240.7721
 CYCLE:   143 TIME:   0.148 TIME LEFT:  2.00D  GRAD.:    26.893 HEAT: -240.7993
 CYCLE:   144 TIME:   0.133 TIME LEFT:  2.00D  GRAD.:    10.931 HEAT: -240.8777
 CYCLE:   145 TIME:   0.129 TIME LEFT:  2.00D  GRAD.:     6.850 HEAT: -240.9174
 CYCLE:   146 TIME:   0.137 TIME LEFT:  2.00D  GRAD.:     7.470 HEAT: -240.9570
 CYCLE:   147 TIME:   0.141 TIME LEFT:  2.00D  GRAD.:     9.742 HEAT: -241.0294
 CYCLE:   148 TIME:   0.133 TIME LEFT:  2.00D  GRAD.:    17.594 HEAT: -241.0705
 CYCLE:   149 TIME:   0.090 TIME LEFT:  2.00D  GRAD.:     7.476 HEAT: -241.1289
 CYCLE:   150 TIME:   0.090 TIME LEFT:  2.00D  GRAD.:     7.744 HEAT: -241.1639
 CYCLE:   151 TIME:   0.117 TIME LEFT:  2.00D  GRAD.:    12.640 HEAT: -241.2149
 CYCLE:   152 TIME:   0.113 TIME LEFT:  2.00D  GRAD.:    29.119 HEAT: -241.2043
 CYCLE:   153 TIME:   0.109 TIME LEFT:  2.00D  GRAD.:     8.087 HEAT: -241.2683
 CYCLE:   154 TIME:   0.105 TIME LEFT:  2.00D  GRAD.:     5.222 HEAT: -241.2824
 CYCLE:   155 TIME:   0.125 TIME LEFT:  2.00D  GRAD.:     6.811 HEAT: -241.3019
 CYCLE:   156 TIME:   0.105 TIME LEFT:  2.00D  GRAD.:     7.699 HEAT: -241.3298
 CYCLE:   157 TIME:   0.117 TIME LEFT:  2.00D  GRAD.:    26.711 HEAT: -241.3287
 CYCLE:   158 TIME:   0.113 TIME LEFT:  2.00D  GRAD.:     7.422 HEAT: -241.3931
 CYCLE:   159 TIME:   0.105 TIME LEFT:  2.00D  GRAD.:     5.506 HEAT: -241.4045
 CYCLE:   160 TIME:   0.125 TIME LEFT:  2.00D  GRAD.:     5.084 HEAT: -241.4371
 CYCLE:   161 TIME:   0.113 TIME LEFT:  2.00D  GRAD.:    22.133 HEAT: -241.4519
 CYCLE:   162 TIME:   0.117 TIME LEFT:  2.00D  GRAD.:     5.697 HEAT: -241.5013
 CYCLE:   163 TIME:   0.102 TIME LEFT:  2.00D  GRAD.:     4.524 HEAT: -241.5132
 CYCLE:   164 TIME:   0.113 TIME LEFT:  2.00D  GRAD.:     7.466 HEAT: -241.5438
 CYCLE:   165 TIME:   0.109 TIME LEFT:  2.00D  GRAD.:     7.320 HEAT: -241.5710
 CYCLE:   166 TIME:   0.117 TIME LEFT:  2.00D  GRAD.:    12.447 HEAT: -241.6016
 CYCLE:   167 TIME:   0.113 TIME LEFT:  2.00D  GRAD.:    12.927 HEAT: -241.6236
 CYCLE:   168 TIME:   0.141 TIME LEFT:  2.00D  GRAD.:     8.196 HEAT: -241.6433
 CYCLE:   169 TIME:   0.113 TIME LEFT:  2.00D  GRAD.:     4.823 HEAT: -241.6713
 CYCLE:   170 TIME:   0.141 TIME LEFT:  2.00D  GRAD.:     5.109 HEAT: -241.7012
 CYCLE:   171 TIME:   0.121 TIME LEFT:  2.00D  GRAD.:     7.344 HEAT: -241.7492
 CYCLE:   172 TIME:   0.125 TIME LEFT:  2.00D  GRAD.:    18.488 HEAT: -241.7515
 CYCLE:   173 TIME:   0.133 TIME LEFT:  2.00D  GRAD.:    11.253 HEAT: -241.7869
 CYCLE:   174 TIME:   0.090 TIME LEFT:  2.00D  GRAD.:     4.585 HEAT: -241.8091
 CYCLE:   175 TIME:   0.113 TIME LEFT:  2.00D  GRAD.:     5.429 HEAT: -241.8267
 CYCLE:   176 TIME:   0.121 TIME LEFT:  2.00D  GRAD.:     8.210 HEAT: -241.8499
 CYCLE:   177 TIME:   0.113 TIME LEFT:  2.00D  GRAD.:    10.238 HEAT: -241.8788
 CYCLE:   178 TIME:   0.105 TIME LEFT:  2.00D  GRAD.:    14.248 HEAT: -241.9046
 CYCLE:   179 TIME:   0.113 TIME LEFT:  2.00D  GRAD.:     5.581 HEAT: -241.9265
 CYCLE:   180 TIME:   0.113 TIME LEFT:  2.00D  GRAD.:     5.367 HEAT: -241.9362
 CYCLE:   181 TIME:   0.105 TIME LEFT:  2.00D  GRAD.:     9.958 HEAT: -241.9598
 CYCLE:   182 TIME:   0.109 TIME LEFT:  2.00D  GRAD.:    10.922 HEAT: -241.9836
 CYCLE:   183 TIME:   0.105 TIME LEFT:  2.00D  GRAD.:     7.200 HEAT: -242.0090
 CYCLE:   184 TIME:   0.145 TIME LEFT:  2.00D  GRAD.:     6.239 HEAT: -242.0373
 CYCLE:   185 TIME:   0.105 TIME LEFT:  2.00D  GRAD.:     6.009 HEAT: -242.0632
 CYCLE:   186 TIME:   0.125 TIME LEFT:  2.00D  GRAD.:     9.234 HEAT: -242.1128
 CYCLE:   187 TIME:   0.133 TIME LEFT:  2.00D  GRAD.:    15.147 HEAT: -242.1257
 CYCLE:   188 TIME:   0.105 TIME LEFT:  2.00D  GRAD.:     5.731 HEAT: -242.1608
 CYCLE:   189 TIME:   0.113 TIME LEFT:  2.00D  GRAD.:     4.768 HEAT: -242.1806
 CYCLE:   190 TIME:   0.117 TIME LEFT:  2.00D  GRAD.:     6.569 HEAT: -242.2118
 CYCLE:   191 TIME:   0.113 TIME LEFT:  2.00D  GRAD.:     9.046 HEAT: -242.2428
 CYCLE:   192 TIME:   0.137 TIME LEFT:  2.00D  GRAD.:    10.509 HEAT: -242.2733
 CYCLE:   193 TIME:   0.117 TIME LEFT:  2.00D  GRAD.:     8.471 HEAT: -242.2909
 CYCLE:   194 TIME:   0.113 TIME LEFT:  2.00D  GRAD.:     5.494 HEAT: -242.3019
 CYCLE:   195 TIME:   0.125 TIME LEFT:  2.00D  GRAD.:     6.151 HEAT: -242.3235
 CYCLE:   196 TIME:   0.102 TIME LEFT:  2.00D  GRAD.:     9.009 HEAT: -242.3469
 CYCLE:   197 TIME:   0.133 TIME LEFT:  2.00D  GRAD.:    15.748 HEAT: -242.3602
 CYCLE:   198 TIME:   0.121 TIME LEFT:  2.00D  GRAD.:     6.149 HEAT: -242.3864
 CYCLE:   199 TIME:   0.113 TIME LEFT:  2.00D  GRAD.:     5.815 HEAT: -242.3991
 CYCLE:   200 TIME:   0.102 TIME LEFT:  2.00D  GRAD.:     7.084 HEAT: -242.4172
 CYCLE:   201 TIME:   0.113 TIME LEFT:  2.00D  GRAD.:     7.069 HEAT: -242.4457
 CYCLE:   202 TIME:   0.121 TIME LEFT:  2.00D  GRAD.:     8.226 HEAT: -242.4925
 CYCLE:   203 TIME:   0.109 TIME LEFT:  2.00D  GRAD.:    11.178 HEAT: -242.5182
 CYCLE:   204 TIME:   0.102 TIME LEFT:  2.00D  GRAD.:     6.381 HEAT: -242.5560
 CYCLE:   205 TIME:   0.145 TIME LEFT:  2.00D  GRAD.:     6.068 HEAT: -242.5792
 CYCLE:   206 TIME:   0.113 TIME LEFT:  2.00D  GRAD.:     7.580 HEAT: -242.6143
 CYCLE:   207 TIME:   0.117 TIME LEFT:  2.00D  GRAD.:    11.696 HEAT: -242.6435
 CYCLE:   208 TIME:   0.105 TIME LEFT:  2.00D  GRAD.:    10.996 HEAT: -242.6725
 CYCLE:   209 TIME:   0.117 TIME LEFT:  2.00D  GRAD.:     5.575 HEAT: -242.6961
 CYCLE:   210 TIME:   0.129 TIME LEFT:  2.00D  GRAD.:     5.317 HEAT: -242.7171
 CYCLE:   211 TIME:   0.129 TIME LEFT:  2.00D  GRAD.:     6.657 HEAT: -242.7402
 CYCLE:   212 TIME:   0.117 TIME LEFT:  2.00D  GRAD.:    17.594 HEAT: -242.7517
 CYCLE:   213 TIME:   0.102 TIME LEFT:  2.00D  GRAD.:     5.900 HEAT: -242.7824
 CYCLE:   214 TIME:   0.109 TIME LEFT:  2.00D  GRAD.:     4.794 HEAT: -242.7951
 CYCLE:   215 TIME:   0.102 TIME LEFT:  2.00D  GRAD.:     5.754 HEAT: -242.8171
 CYCLE:   216 TIME:   0.129 TIME LEFT:  2.00D  GRAD.:    13.659 HEAT: -242.8346
 CYCLE:   217 TIME:   0.141 TIME LEFT:  2.00D  GRAD.:     7.425 HEAT: -242.8608
 CYCLE:   218 TIME:   0.117 TIME LEFT:  2.00D  GRAD.:     4.723 HEAT: -242.8839
 CYCLE:   219 TIME:   0.129 TIME LEFT:  2.00D  GRAD.:     6.016 HEAT: -242.8989
 CYCLE:   220 TIME:   0.117 TIME LEFT:  2.00D  GRAD.:     6.908 HEAT: -242.9188
 CYCLE:   221 TIME:   0.121 TIME LEFT:  2.00D  GRAD.:     8.533 HEAT: -242.9369
 CYCLE:   222 TIME:   0.125 TIME LEFT:  2.00D  GRAD.:     5.851 HEAT: -242.9504
 CYCLE:   223 TIME:   0.129 TIME LEFT:  2.00D  GRAD.:     4.532 HEAT: -242.9596
 CYCLE:   224 TIME:   0.121 TIME LEFT:  2.00D  GRAD.:     4.709 HEAT: -242.9716
 CYCLE:   225 TIME:   0.129 TIME LEFT:  2.00D  GRAD.:     6.079 HEAT: -242.9911
 CYCLE:   226 TIME:   0.129 TIME LEFT:  2.00D  GRAD.:     4.566 HEAT: -243.0072
 CYCLE:   227 TIME:   0.125 TIME LEFT:  2.00D  GRAD.:     4.423 HEAT: -243.0198
 CYCLE:   228 TIME:   0.102 TIME LEFT:  2.00D  GRAD.:    15.110 HEAT: -243.0176
 CYCLE:   229 TIME:   0.117 TIME LEFT:  2.00D  GRAD.:     3.860 HEAT: -243.0324
 CYCLE:   230 TIME:   0.105 TIME LEFT:  2.00D  GRAD.:     2.810 HEAT: -243.0357
 CYCLE:   231 TIME:   0.102 TIME LEFT:  2.00D  GRAD.:     3.608 HEAT: -243.0421
 CYCLE:   232 TIME:   0.102 TIME LEFT:  2.00D  GRAD.:     3.756 HEAT: -243.0503
 CYCLE:   233 TIME:   0.117 TIME LEFT:  2.00D  GRAD.:    11.344 HEAT: -243.0503
 CYCLE:   234 TIME:   0.105 TIME LEFT:  2.00D  GRAD.:     3.021 HEAT: -243.0646
 CYCLE:   235 TIME:   0.117 TIME LEFT:  2.00D  GRAD.:     2.441 HEAT: -243.0685
 CYCLE:   236 TIME:   0.113 TIME LEFT:  2.00D  GRAD.:     3.247 HEAT: -243.0748
 CYCLE:   237 TIME:   0.129 TIME LEFT:  2.00D  GRAD.:     9.360 HEAT: -243.0799
 CYCLE:   238 TIME:   0.109 TIME LEFT:  2.00D  GRAD.:     3.586 HEAT: -243.0886
 CYCLE:   239 TIME:   0.109 TIME LEFT:  2.00D  GRAD.:     3.781 HEAT: -243.0949
 CYCLE:   240 TIME:   0.109 TIME LEFT:  2.00D  GRAD.:     4.978 HEAT: -243.1007
 CYCLE:   241 TIME:   0.105 TIME LEFT:  2.00D  GRAD.:     5.321 HEAT: -243.1096
 CYCLE:   242 TIME:   0.113 TIME LEFT:  2.00D  GRAD.:    14.423 HEAT: -243.1090
 CYCLE:   243 TIME:   0.105 TIME LEFT:  2.00D  GRAD.:     3.387 HEAT: -243.1347
 CYCLE:   244 TIME:   0.082 TIME LEFT:  2.00D  GRAD.:     2.994 HEAT: -243.1411
 CYCLE:   245 TIME:   0.125 TIME LEFT:  2.00D  GRAD.:    11.824 HEAT: -243.1457
 CYCLE:   246 TIME:   0.117 TIME LEFT:  2.00D  GRAD.:     4.315 HEAT: -243.1559
 CYCLE:   247 TIME:   0.117 TIME LEFT:  2.00D  GRAD.:     3.252 HEAT: -243.1601
 CYCLE:   248 TIME:   0.133 TIME LEFT:  2.00D  GRAD.:     5.440 HEAT: -243.1685
 CYCLE:   249 TIME:   0.105 TIME LEFT:  2.00D  GRAD.:     5.087 HEAT: -243.1757
 CYCLE:   250 TIME:   0.121 TIME LEFT:  2.00D  GRAD.:     7.135 HEAT: -243.1858
 CYCLE:   251 TIME:   0.125 TIME LEFT:  2.00D  GRAD.:     3.640 HEAT: -243.1968
 CYCLE:   252 TIME:   0.105 TIME LEFT:  2.00D  GRAD.:     3.851 HEAT: -243.2041
 CYCLE:   253 TIME:   0.105 TIME LEFT:  2.00D  GRAD.:     7.868 HEAT: -243.2094
 CYCLE:   254 TIME:   0.117 TIME LEFT:  2.00D  GRAD.:     3.881 HEAT: -243.2157
 CYCLE:   255 TIME:   0.109 TIME LEFT:  2.00D  GRAD.:     3.342 HEAT: -243.2220
 CYCLE:   256 TIME:   0.121 TIME LEFT:  2.00D  GRAD.:     4.552 HEAT: -243.2266
 CYCLE:   257 TIME:   0.117 TIME LEFT:  2.00D  GRAD.:     4.938 HEAT: -243.2360
 CYCLE:   258 TIME:   0.117 TIME LEFT:  2.00D  GRAD.:     6.305 HEAT: -243.2512
 CYCLE:   259 TIME:   0.109 TIME LEFT:  2.00D  GRAD.:     6.116 HEAT: -243.2640
 CYCLE:   260 TIME:   0.117 TIME LEFT:  2.00D  GRAD.:     9.674 HEAT: -243.2696
 CYCLE:   261 TIME:   0.129 TIME LEFT:  2.00D  GRAD.:     3.814 HEAT: -243.2792
 CYCLE:   262 TIME:   0.137 TIME LEFT:  2.00D  GRAD.:     3.078 HEAT: -243.2833
 CYCLE:   263 TIME:   0.105 TIME LEFT:  2.00D  GRAD.:     3.571 HEAT: -243.2912
 CYCLE:   264 TIME:   0.133 TIME LEFT:  2.00D  GRAD.:     4.161 HEAT: -243.3046
 CYCLE:   265 TIME:   0.141 TIME LEFT:  2.00D  GRAD.:    12.031 HEAT: -243.2973
 CYCLE:   266 TIME:   0.109 TIME LEFT:  2.00D  GRAD.:     2.230 HEAT: -243.3146
 CYCLE:   267 TIME:   0.137 TIME LEFT:  2.00D  GRAD.:     2.047 HEAT: -243.3172
 CYCLE:   268 TIME:   0.109 TIME LEFT:  2.00D  GRAD.:     4.141 HEAT: -243.3239
 CYCLE:   269 TIME:   0.133 TIME LEFT:  2.00D  GRAD.:     8.218 HEAT: -243.3267
 CYCLE:   270 TIME:   0.121 TIME LEFT:  2.00D  GRAD.:     2.847 HEAT: -243.3330
 CYCLE:   271 TIME:   0.121 TIME LEFT:  2.00D  GRAD.:     2.407 HEAT: -243.3359
 CYCLE:   272 TIME:   0.113 TIME LEFT:  2.00D  GRAD.:     3.122 HEAT: -243.3403
 CYCLE:   273 TIME:   0.117 TIME LEFT:  2.00D  GRAD.:     3.775 HEAT: -243.3478
 CYCLE:   274 TIME:   0.133 TIME LEFT:  2.00D  GRAD.:     8.261 HEAT: -243.3514
 CYCLE:   275 TIME:   0.125 TIME LEFT:  2.00D  GRAD.:     4.432 HEAT: -243.3623
 CYCLE:   276 TIME:   0.117 TIME LEFT:  2.00D  GRAD.:     2.479 HEAT: -243.3667
 CYCLE:   277 TIME:   0.141 TIME LEFT:  2.00D  GRAD.:     2.370 HEAT: -243.3709
 CYCLE:   278 TIME:   0.129 TIME LEFT:  2.00D  GRAD.:     3.389 HEAT: -243.3774
 CYCLE:   279 TIME:   0.121 TIME LEFT:  2.00D  GRAD.:     4.040 HEAT: -243.3853
 CYCLE:   280 TIME:   0.129 TIME LEFT:  2.00D  GRAD.:     4.215 HEAT: -243.3926
 CYCLE:   281 TIME:   0.105 TIME LEFT:  2.00D  GRAD.:     4.058 HEAT: -243.3980
 CYCLE:   282 TIME:   0.121 TIME LEFT:  2.00D  GRAD.:     4.709 HEAT: -243.4056
 CYCLE:   283 TIME:   0.121 TIME LEFT:  2.00D  GRAD.:     5.827 HEAT: -243.4170
 CYCLE:   284 TIME:   0.121 TIME LEFT:  2.00D  GRAD.:     4.856 HEAT: -243.4184
 CYCLE:   285 TIME:   0.113 TIME LEFT:  2.00D  GRAD.:     2.497 HEAT: -243.4231
 CYCLE:   286 TIME:   0.137 TIME LEFT:  2.00D  GRAD.:     5.127 HEAT: -243.4264
 CYCLE:   287 TIME:   0.109 TIME LEFT:  2.00D  GRAD.:     4.513 HEAT: -243.4342
 CYCLE:   288 TIME:   0.129 TIME LEFT:  2.00D  GRAD.:     3.538 HEAT: -243.4429
 CYCLE:   289 TIME:   0.125 TIME LEFT:  2.00D  GRAD.:     3.314 HEAT: -243.4511
 CYCLE:   290 TIME:   0.141 TIME LEFT:  2.00D  GRAD.:     3.784 HEAT: -243.4602
 CYCLE:   291 TIME:   0.141 TIME LEFT:  2.00D  GRAD.:    16.809 HEAT: -243.4497
 CYCLE:   292 TIME:   0.109 TIME LEFT:  2.00D  GRAD.:     2.937 HEAT: -243.4749
 CYCLE:   293 TIME:   0.121 TIME LEFT:  2.00D  GRAD.:     2.548 HEAT: -243.4787
 CYCLE:   294 TIME:   0.133 TIME LEFT:  2.00D  GRAD.:     3.494 HEAT: -243.4874
 CYCLE:   295 TIME:   0.117 TIME LEFT:  2.00D  GRAD.:     2.911 HEAT: -243.4935
 CYCLE:   296 TIME:   0.113 TIME LEFT:  2.00D  GRAD.:     2.673 HEAT: -243.4979
 CYCLE:   297 TIME:   0.137 TIME LEFT:  2.00D  GRAD.:     4.551 HEAT: -243.5047
 CYCLE:   298 TIME:   0.125 TIME LEFT:  2.00D  GRAD.:     5.398 HEAT: -243.5100
 CYCLE:   299 TIME:   0.129 TIME LEFT:  2.00D  GRAD.:     2.715 HEAT: -243.5137
 CYCLE:   300 TIME:   0.133 TIME LEFT:  2.00D  GRAD.:     2.523 HEAT: -243.5162
 CYCLE:   301 TIME:   0.121 TIME LEFT:  2.00D  GRAD.:     3.126 HEAT: -243.5216
 CYCLE:   302 TIME:   0.133 TIME LEFT:  2.00D  GRAD.:     3.273 HEAT: -243.5306
 CYCLE:   303 TIME:   0.125 TIME LEFT:  2.00D  GRAD.:    11.229 HEAT: -243.5239
 CYCLE:   304 TIME:   0.109 TIME LEFT:  2.00D  GRAD.:     2.784 HEAT: -243.5386
 CYCLE:   305 TIME:   0.098 TIME LEFT:  2.00D  GRAD.:     1.877 HEAT: -243.5412
 CYCLE:   306 TIME:   0.113 TIME LEFT:  2.00D  GRAD.:     2.835 HEAT: -243.5480
 CYCLE:   307 TIME:   0.121 TIME LEFT:  2.00D  GRAD.:     3.929 HEAT: -243.5536
 CYCLE:   308 TIME:   0.121 TIME LEFT:  2.00D  GRAD.:     4.357 HEAT: -243.5590
 CYCLE:   309 TIME:   0.113 TIME LEFT:  2.00D  GRAD.:     2.516 HEAT: -243.5646
 CYCLE:   310 TIME:   0.094 TIME LEFT:  2.00D  GRAD.:     2.832 HEAT: -243.5695
 CYCLE:   311 TIME:   0.090 TIME LEFT:  2.00D  GRAD.:     6.016 HEAT: -243.5714
 CYCLE:   312 TIME:   0.141 TIME LEFT:  2.00D  GRAD.:     2.566 HEAT: -243.5742
 CYCLE:   313 TIME:   0.109 TIME LEFT:  2.00D  GRAD.:     2.329 HEAT: -243.5766
 CYCLE:   314 TIME:   0.113 TIME LEFT:  2.00D  GRAD.:     3.039 HEAT: -243.5786
 CYCLE:   315 TIME:   0.086 TIME LEFT:  2.00D  GRAD.:     3.197 HEAT: -243.5821
 CYCLE:   316 TIME:   0.133 TIME LEFT:  2.00D  GRAD.:    16.350 HEAT: -243.5628
 CYCLE:   317 TIME:   0.098 TIME LEFT:  2.00D  GRAD.:     1.934 HEAT: -243.5880
 CYCLE:   318 TIME:   0.113 TIME LEFT:  2.00D  GRAD.:     1.657 HEAT: -243.5891
 CYCLE:   319 TIME:   0.109 TIME LEFT:  2.00D  GRAD.:     1.900 HEAT: -243.5915
 CYCLE:   320 TIME:   0.117 TIME LEFT:  2.00D  GRAD.:     2.085 HEAT: -243.5938
 CYCLE:   321 TIME:   0.121 TIME LEFT:  2.00D  GRAD.:     3.614 HEAT: -243.5960
 CYCLE:   322 TIME:   0.137 TIME LEFT:  2.00D  GRAD.:     2.697 HEAT: -243.5987
 CYCLE:   323 TIME:   0.129 TIME LEFT:  2.00D  GRAD.:     1.689 HEAT: -243.6006
 CYCLE:   324 TIME:   0.113 TIME LEFT:  2.00D  GRAD.:     1.590 HEAT: -243.6026
