 *******************************************************************************
 ** Site#: 36969        For non-commercial use only    Version 21.051W 64BITS **
 *******************************************************************************
 ** Cite this program as: MOPAC2016, Version: 21.051W, James J. P. Stewart,   **
 ** Stewart Computational Chemistry, web: HTTP://OpenMOPAC.net. Days left: 268**
 *******************************************************************************
 **                                                                           **
 **                                MOPAC2016                                  **
 **                                                                           **
 *******************************************************************************

                              PM7 CALCULATION RESULTS

 *******************************************************************************
 *  CALCULATION DONE:                                Fri May 28 16:13:56 2021  *
 *  PM7        - The PM7 Hamiltonian to be used
 *  GEO-OK     - OVERRIDE INTERATOMIC DISTANCE AND OTHER SAFETY CHECKS
 *  T=         - A TIME OF 172800.0 SECONDS REQUESTED
 *  DUMP=N     - RESTART FILE WRITTEN EVERY 7200.0 SECONDS REQUESTED
 *  CYCLES=    - DO A MAXIMUM OF 500 STEPS
 *******************************************************************************
PM7 GEO-OK CYCLES=500
 temp

  ATOM    CHEMICAL      BOND LENGTH      BOND ANGLE     TWIST ANGLE 
 NUMBER    SYMBOL       (ANGSTROMS)      (DEGREES)       (DEGREES) 
   (I)                     NA:I           NB:NA:I       NC:NB:NA:I       NA    NB    NC 
     1       C         -2.44748500  *   -3.5628283  *   -1.2640433  *     0     0     0
     2       C         -2.06496500  *   -2.3990883  *   -0.3616933  *     0     0     0
     3       C         -0.61647500  *   -2.0140783  *   -0.3315333  *     0     0     0
     4       C          0.32666500  *   -2.6293983  *   -1.0776833  *     0     0     0
     5       C         -0.01342500  *   -3.8820483  *   -1.8668833  *     0     0     0
     6       C         -1.27812500  *   -4.5488583  *   -1.3251333  *     0     0     0
     7       C         -4.41052500  *   -2.1645883  *    0.6582867  *     0     0     0
     8       N          1.63971500  *   -2.0582083  *   -1.1332833  *     0     0     0
     9       C          2.74522500  *   -2.6617283  *   -1.8587833  *     0     0     0
    10       C          3.51148500  *   -1.6167783  *   -2.6536933  *     0     0     0
    11       C          3.64929500  *   -3.2806683  *   -0.8074833  *     0     0     0
    12       H         -3.28448500  *   -4.1495383  *   -0.8409633  *     0     0     0
    13       H         -2.70565500  *   -3.2036683  *   -2.2821733  *     0     0     0
    14       H         -0.31213500  *   -1.1633783  *    0.2524267  *     0     0     0
    15       H          0.79047500  *   -4.6364383  *   -1.7238333  *     0     0     0
    16       H         -0.08757500  *   -3.6473083  *   -2.9502333  *     0     0     0
    17       H         -1.06364500  *   -4.8989083  *   -0.2870533  *     0     0     0
    18       H         -1.52486500  *   -5.4417783  *   -1.9373633  *     0     0     0
    19       H         -2.50589500  *   -1.1516283  *    1.2479967  *     0     0     0
    20       H         -5.16036500  *   -1.3536083  *    0.7268367  *     0     0     0
    21       H         -4.79006500  *   -2.8698083  *   -0.0989433  *     0     0     0
    22       H         -4.45719500  *   -2.6326983  *    1.6620867  *     0     0     0
    23       H          2.44072500  *   -3.4534983  *   -2.5724733  *     0     0     0
    24       H          4.51823500  *   -1.9986383  *   -2.9289433  *     0     0     0
    25       H          3.09468500  *   -1.3128483  *   -3.6068233  *     0     0     0
    26       H          3.50825500  *   -0.7013183  *   -2.0505633  *     0     0     0
    27       H          3.97544500  *   -2.5152583  *   -0.0743233  *     0     0     0
    28       H          4.54144500  *   -3.7379383  *   -1.2768933  *     0     0     0
    29       H          3.06795500  *   -4.0615283  *   -0.2743433  *     0     0     0
    30       N          5.55897500  *    0.1842417  *    0.8566667  *     0     0     0
    31       C          4.80368500  *    1.2450517  *    0.2139167  *     0     0     0
    32       C          3.32326500  *    0.8530717  *    0.1114067  *     0     0     0
    33       C          5.42772500  *    1.6418817  *   -1.1256733  *     0     0     0
    34       C          6.44127500  *    2.3486517  *   -3.6644133  *     0     0     0
    35       C          5.83188500  *    2.9643117  *   -1.3913433  *     0     0     0
    36       C          5.63383500  *    0.6879817  *   -2.1257233  *     0     0     0
    37       C          6.08824500  *    1.0314017  *   -3.3955133  *     0     0     0
    38       C          6.35000500  *    3.3091617  *   -2.6514533  *     0     0     0
    39       O          2.39705500  *    1.8063917  *   -0.1057133  *     0     0     0
    40       C          5.50659500  *    0.0122917  *    2.2014967  *     0     0     0
    41       O          4.77149500  *    0.8758717  *    2.9609267  *     0     0     0
    42       O          6.13962500  *   -0.8979583  *    2.7144867  *     0     0     0
    43       C          4.59791500  *    0.8861217  *    4.3371867  *     0     0     0
    44       C          3.90965500  *   -0.4141583  *    4.7874567  *     0     0     0
    45       C          3.68850500  *    2.0777917  *    4.6830667  *     0     0     0
    46       C          5.95004500  *    1.0739517  *    5.0553667  *     0     0     0
    47       H          6.14617500  *   -0.4504983  *    0.2949767  *     0     0     0
    48       H          4.83958500  *    2.1442617  *    0.8677267  *     0     0     0
    49       H          6.80822500  *    2.6128317  *   -4.6479633  *     0     0     0
    50       H          5.74876500  *    3.7271617  *   -0.6292833  *     0     0     0
    51       H          5.45996500  *   -0.3325883  *   -1.9086733  *     0     0     0
    52       H          6.17596500  *    0.2689517  *   -4.1610133  *     0     0     0
    53       H          6.66937500  *    4.3225817  *   -2.8505033  *     0     0     0
    54       H          3.69729500  *   -0.3904083  *    5.8767367  *     0     0     0
    55       H          2.95183500  *   -0.5433583  *    4.2377467  *     0     0     0
    56       H          4.54674500  *   -1.2978683  *    4.5816567  *     0     0     0
    57       H          3.50588500  *    2.1291717  *    5.7788267  *     0     0     0
    58       H          2.70857500  *    1.9838017  *    4.1674667  *     0     0     0
    59       H          4.15688500  *    3.0339017  *    4.3622667  *     0     0     0
    60       H          6.44529500  *    2.0056917  *    4.7044467  *     0     0     0
    61       H          5.80301500  *    1.1452317  *    6.1542567  *     0     0     0
    62       H          6.63613500  *    0.2252817  *    4.8613267  *     0     0     0
    63       C         -2.35020500  *    0.9555417  *    0.4415067  *     0     0     0
    64       H         -4.27182500  *    0.1400417  *   -0.2506033  *     0     0     0
    65       H         -2.56363500  *    1.2676117  *    1.4570967  *     0     0     0
    66       C         -1.11901500  *    1.0931517  *   -0.2970733  *     0     0     0
    67       C         -2.53133500  *    0.2431417  *   -1.7138833  *     0     0     0
    68       O         -3.02620500  *   -0.1188183  *   -2.7703433  *     0     0     0
    69       C         -0.31401500  *    0.7966917  *   -2.6391733  *     0     0     0
    70       C          0.33104500  *    2.0058217  *   -3.0769533  *     0     0     0
    71       C         -0.01554500  *   -0.4118683  *   -3.2802133  *     0     0     0
    72       C          1.34461500  *    1.8651817  *   -4.0700933  *     0     0     0
    73       C          0.95015500  *   -0.4965683  *   -4.2618233  *     0     0     0
    74       H         -0.53287500  *   -1.3098783  *   -3.0024933  *     0     0     0
    75       C          1.65908500  *    0.6330117  *   -4.6325933  *     0     0     0
    76       H          1.90363500  *    2.6981417  *   -4.4581633  *     0     0     0
    77       H          1.17569500  *   -1.4575083  *   -4.7100433  *     0     0     0
    78       H          2.44039500  *    0.5577417  *   -5.3800333  *     0     0     0
    79       C         -0.12381500  *    3.4432417  *   -2.6566733  *     0     0     0
    80       C          0.65249500  *    3.9630717  *   -1.4431533  *     0     0     0
    81       H          0.41589500  *    3.4110917  *   -0.5454733  *     0     0     0
    82       H          1.74680500  *    3.9085417  *   -1.6290333  *     0     0     0
    83       H          0.36164500  *    4.9995717  *   -1.1885033  *     0     0     0
    84       C          0.12185500  *    4.4603117  *   -3.8010133  *     0     0     0
    85       H         -0.40062500  *    4.1419617  *   -4.7286533  *     0     0     0
    86       H         -0.25828500  *    5.4639117  *   -3.5119533  *     0     0     0
    87       H          1.19881500  *    4.6145417  *   -4.0077333  *     0     0     0
    88       C         -1.65547500  *    3.5102417  *   -2.3993533  *     0     0     0
    89       H         -2.21423500  *    3.0084917  *   -3.2211933  *     0     0     0
    90       H         -1.95996500  *    3.0697417  *   -1.4424933  *     0     0     0
    91       H         -2.01307500  *    4.5558717  *   -2.3190533  *     0     0     0
    92       N         -1.28346500  *    0.7404517  *   -1.5947333  *     0     0     0
    93       O          2.93024500  *   -0.2975483  *    0.2961767  *     0     0     0
    94       H          1.62184834      37.8220563  *   86.1085616  *    93    77    69
    95       O         -0.07029500  *    1.4053417  *    0.2149767  *     0     0     0
    96       H          1.52761875     117.5914824  *  -52.1651925  *    95    13    76
    97       C         -3.21747500  *    0.2702017  *   -0.4145433  *     0     0     0
    98       C          2.16807513      54.6814202  *  103.7591271  *    97    14    68
 


          CARTESIAN COORDINATES 

    NO.       ATOM           X           Y           Z

     1         C         -2.4475     -3.5628     -1.2640
     2         C         -2.0650     -2.3991     -0.3617
     3         C         -0.6165     -2.0141     -0.3315
     4         C          0.3267     -2.6294     -1.0777
     5         C         -0.0134     -3.8820     -1.8669
     6         C         -1.2781     -4.5489     -1.3251
     7         C         -4.4105     -2.1646      0.6583
     8         N          1.6397     -2.0582     -1.1333
     9         C          2.7452     -2.6617     -1.8588
    10         C          3.5115     -1.6168     -2.6537
    11         C          3.6493     -3.2807     -0.8075
    12         H         -3.2845     -4.1495     -0.8410
    13         H         -2.7057     -3.2037     -2.2822
    14         H         -0.3121     -1.1634      0.2524
    15         H          0.7905     -4.6364     -1.7238
    16         H         -0.0876     -3.6473     -2.9502
    17         H         -1.0636     -4.8989     -0.2871
    18         H         -1.5249     -5.4418     -1.9374
    19         H         -2.5059     -1.1516      1.2480
    20         H         -5.1604     -1.3536      0.7268
    21         H         -4.7901     -2.8698     -0.0989
    22         H         -4.4572     -2.6327      1.6621
    23         H          2.4407     -3.4535     -2.5725
    24         H          4.5182     -1.9986     -2.9289
    25         H          3.0947     -1.3128     -3.6068
    26         H          3.5083     -0.7013     -2.0506
    27         H          3.9754     -2.5153     -0.0743
    28         H          4.5414     -3.7379     -1.2769
    29         H          3.0680     -4.0615     -0.2743
    30         N          5.5590      0.1842      0.8567
    31         C          4.8037      1.2451      0.2139
    32         C          3.3233      0.8531      0.1114
    33         C          5.4277      1.6419     -1.1257
    34         C          6.4413      2.3487     -3.6644
    35         C          5.8319      2.9643     -1.3913
    36         C          5.6338      0.6880     -2.1257
    37         C          6.0882      1.0314     -3.3955
    38         C          6.3500      3.3092     -2.6515
    39         O          2.3971      1.8064     -0.1057
    40         C          5.5066      0.0123      2.2015
    41         O          4.7715      0.8759      2.9609
    42         O          6.1396     -0.8980      2.7145
    43         C          4.5979      0.8861      4.3372
    44         C          3.9097     -0.4142      4.7875
    45         C          3.6885      2.0778      4.6831
    46         C          5.9500      1.0740      5.0554
    47         H          6.1462     -0.4505      0.2950
    48         H          4.8396      2.1443      0.8677
    49         H          6.8082      2.6128     -4.6480
    50         H          5.7488      3.7272     -0.6293
    51         H          5.4600     -0.3326     -1.9087
    52         H          6.1760      0.2690     -4.1610
    53         H          6.6694      4.3226     -2.8505
    54         H          3.6973     -0.3904      5.8767
    55         H          2.9518     -0.5434      4.2377
    56         H          4.5467     -1.2979      4.5817
    57         H          3.5059      2.1292      5.7788
    58         H          2.7086      1.9838      4.1675
    59         H          4.1569      3.0339      4.3623
    60         H          6.4453      2.0057      4.7044
    61         H          5.8030      1.1452      6.1543
    62         H          6.6361      0.2253      4.8613
    63         C         -2.3502      0.9555      0.4415
    64         H         -4.2718      0.1400     -0.2506
    65         H         -2.5636      1.2676      1.4571
    66         C         -1.1190      1.0932     -0.2971
    67         C         -2.5313      0.2431     -1.7139
    68         O         -3.0262     -0.1188     -2.7703
    69         C         -0.3140      0.7967     -2.6392
    70         C          0.3310      2.0058     -3.0770
    71         C         -0.0155     -0.4119     -3.2802
    72         C          1.3446      1.8652     -4.0701
    73         C          0.9502     -0.4966     -4.2618
    74         H         -0.5329     -1.3099     -3.0025
    75         C          1.6591      0.6330     -4.6326
    76         H          1.9036      2.6981     -4.4582
    77         H          1.1757     -1.4575     -4.7100
    78         H          2.4404      0.5577     -5.3800
    79         C         -0.1238      3.4432     -2.6567
    80         C          0.6525      3.9631     -1.4432
    81         H          0.4159      3.4111     -0.5455
    82         H          1.7468      3.9085     -1.6290
    83         H          0.3616      4.9996     -1.1885
    84         C          0.1219      4.4603     -3.8010
    85         H         -0.4006      4.1420     -4.7287
    86         H         -0.2583      5.4639     -3.5120
    87         H          1.1988      4.6145     -4.0077
    88         C         -1.6555      3.5102     -2.3994
    89         H         -2.2142      3.0085     -3.2212
    90         H         -1.9600      3.0697     -1.4425
    91         H         -2.0131      4.5559     -2.3191
    92         N         -1.2835      0.7405     -1.5947
    93         O          2.9302     -0.2975      0.2962
    94         H          1.8899     -1.2461     -0.5090
    95         O         -0.0703      1.4053      0.2150
    96         H          1.4292      1.5767     -0.0213
    97         C         -3.2175      0.2702     -0.4145
    98         C         -2.9616     -1.7086      0.4337

 General Reference for PM7:
 "Optimization of Parameters for Semiempirical Methods VI: More Modifications to the 
 NDDO Approximations and Re-optimization of Parameters", J. J. P. Stewart, J. Mol. Mod., 1:32, 19 (2013)
 https://link.springer.com/article/10.1007/s00894-012-1667-x

           Empirical Formula: C38 H51 N3 O6  =    98 atoms



      MOLECULAR POINT GROUP   :   C1  


      RHF CALCULATION, NO. OF DOUBLY OCCUPIED LEVELS = 127


          Geometry optimization using L-BFGS
 CYCLE:     1 TIME:   0.250 TIME LEFT:  2.00D  GRAD.:   325.758 HEAT: -189.0877
 CYCLE:     2 TIME:   0.117 TIME LEFT:  2.00D  GRAD.:   317.278 HEAT: -190.1358
 CYCLE:     3 TIME:   0.129 TIME LEFT:  2.00D  GRAD.:   111.272 HEAT: -217.0452
 CYCLE:     4 TIME:   0.125 TIME LEFT:  2.00D  GRAD.:   318.542 HEAT: -190.1322
 CYCLE:     5 TIME:   0.109 TIME LEFT:  2.00D  GRAD.:   111.842 HEAT: -217.0578
 CYCLE:     6 TIME:   0.121 TIME LEFT:  2.00D  GRAD.:   153.472 HEAT: -220.3481
 CYCLE:     7 TIME:   0.137 TIME LEFT:  2.00D  GRAD.:   108.090 HEAT: -222.8322
 CYCLE:     8 TIME:   0.117 TIME LEFT:  2.00D  GRAD.:    74.567 HEAT: -224.8048
 CYCLE:     9 TIME:   0.129 TIME LEFT:  2.00D  GRAD.:    71.653 HEAT: -226.8464
 CYCLE:    10 TIME:   0.113 TIME LEFT:  2.00D  GRAD.:    66.374 HEAT: -229.2528
 CYCLE:    11 TIME:   0.109 TIME LEFT:  2.00D  GRAD.:    53.473 HEAT: -230.6692
 CYCLE:    12 TIME:   0.113 TIME LEFT:  2.00D  GRAD.:    37.492 HEAT: -231.5579
 CYCLE:    13 TIME:   0.121 TIME LEFT:  2.00D  GRAD.:    37.166 HEAT: -232.7393
 CYCLE:    14 TIME:   0.133 TIME LEFT:  2.00D  GRAD.:    33.793 HEAT: -233.6794
 CYCLE:    15 TIME:   0.117 TIME LEFT:  2.00D  GRAD.:    71.321 HEAT: -234.1115
 CYCLE:    16 TIME:   0.137 TIME LEFT:  2.00D  GRAD.:    25.242 HEAT: -234.8982
 CYCLE:    17 TIME:   0.117 TIME LEFT:  2.00D  GRAD.:    22.936 HEAT: -235.2239
 CYCLE:    18 TIME:   0.113 TIME LEFT:  2.00D  GRAD.:    29.706 HEAT: -235.8150
 CYCLE:    19 TIME:   0.145 TIME LEFT:  2.00D  GRAD.:    42.064 HEAT: -236.4699
 CYCLE:    20 TIME:   0.098 TIME LEFT:  2.00D  GRAD.:    35.056 HEAT: -236.9924
 CYCLE:    21 TIME:   0.094 TIME LEFT:  2.00D  GRAD.:    39.740 HEAT: -237.2737
 CYCLE:    22 TIME:   0.098 TIME LEFT:  2.00D  GRAD.:    22.319 HEAT: -237.5172
 CYCLE:    23 TIME:   0.113 TIME LEFT:  2.00D  GRAD.:    23.542 HEAT: -237.7098
 CYCLE:    24 TIME:   0.117 TIME LEFT:  2.00D  GRAD.:    56.432 HEAT: -238.1311
 CYCLE:    25 TIME:   0.133 TIME LEFT:  2.00D  GRAD.:    28.334 HEAT: -238.5253
 CYCLE:    26 TIME:   0.105 TIME LEFT:  2.00D  GRAD.:    18.239 HEAT: -238.7139
 CYCLE:    27 TIME:   0.137 TIME LEFT:  2.00D  GRAD.:    16.799 HEAT: -238.9541
 CYCLE:    28 TIME:   0.152 TIME LEFT:  2.00D  GRAD.:    19.584 HEAT: -239.1793
 CYCLE:    29 TIME:   0.113 TIME LEFT:  2.00D  GRAD.:    42.300 HEAT: -239.3427
 CYCLE:    30 TIME:   0.223 TIME LEFT:  2.00D  GRAD.:    16.271 HEAT: -239.6509
 CYCLE:    31 TIME:   0.152 TIME LEFT:  2.00D  GRAD.:    15.159 HEAT: -239.8030
 CYCLE:    32 TIME:   0.133 TIME LEFT:  2.00D  GRAD.:    18.403 HEAT: -240.0296
 CYCLE:    33 TIME:   0.152 TIME LEFT:  2.00D  GRAD.:    27.608 HEAT: -240.2285
 CYCLE:    34 TIME:   0.129 TIME LEFT:  2.00D  GRAD.:    23.100 HEAT: -240.4218
 CYCLE:    35 TIME:   0.086 TIME LEFT:  2.00D  GRAD.:    31.826 HEAT: -240.4966
 CYCLE:    36 TIME:   0.125 TIME LEFT:  2.00D  GRAD.:    17.309 HEAT: -240.5893
 CYCLE:    37 TIME:   0.105 TIME LEFT:  2.00D  GRAD.:    13.267 HEAT: -240.6814
 CYCLE:    38 TIME:   0.117 TIME LEFT:  2.00D  GRAD.:    15.778 HEAT: -240.8042
 CYCLE:    39 TIME:   0.133 TIME LEFT:  2.00D  GRAD.:    26.736 HEAT: -240.9469
 CYCLE:    40 TIME:   0.113 TIME LEFT:  2.00D  GRAD.:    21.864 HEAT: -241.0477
 CYCLE:    41 TIME:   0.094 TIME LEFT:  2.00D  GRAD.:    11.729 HEAT: -241.1241
 CYCLE:    42 TIME:   0.129 TIME LEFT:  2.00D  GRAD.:    11.298 HEAT: -241.2066
 CYCLE:    43 TIME:   0.152 TIME LEFT:  2.00D  GRAD.:    13.472 HEAT: -241.2750
 CYCLE:    44 TIME:   0.121 TIME LEFT:  2.00D  GRAD.:    15.695 HEAT: -241.4375
 CYCLE:    45 TIME:   0.156 TIME LEFT:  2.00D  GRAD.:    36.888 HEAT: -241.4278
 CYCLE:    46 TIME:   0.133 TIME LEFT:  2.00D  GRAD.:    10.111 HEAT: -241.6305
 CYCLE:    47 TIME:   0.102 TIME LEFT:  2.00D  GRAD.:     8.749 HEAT: -241.6904
 CYCLE:    48 TIME:   0.129 TIME LEFT:  2.00D  GRAD.:    11.752 HEAT: -241.7928
 CYCLE:    49 TIME:   0.117 TIME LEFT:  2.00D  GRAD.:    97.302 HEAT: -241.4278
 CYCLE:    50 TIME:   0.105 TIME LEFT:  2.00D  GRAD.:    13.556 HEAT: -241.8652
 CYCLE:    51 TIME:   0.105 TIME LEFT:  2.00D  GRAD.:     9.933 HEAT: -241.8916
 CYCLE:    52 TIME:   0.090 TIME LEFT:  2.00D  GRAD.:    10.774 HEAT: -241.9708
 CYCLE:    53 TIME:   0.113 TIME LEFT:  2.00D  GRAD.:    14.006 HEAT: -242.0299
 CYCLE:    54 TIME:   0.129 TIME LEFT:  2.00D  GRAD.:    23.328 HEAT: -242.1113
 CYCLE:    55 TIME:   0.102 TIME LEFT:  2.00D  GRAD.:    10.800 HEAT: -242.2280
 CYCLE:    56 TIME:   0.105 TIME LEFT:  2.00D  GRAD.:     9.378 HEAT: -242.2879
 CYCLE:    57 TIME:   0.094 TIME LEFT:  2.00D  GRAD.:    16.997 HEAT: -242.3416
 CYCLE:    58 TIME:   0.102 TIME LEFT:  2.00D  GRAD.:    10.957 HEAT: -242.3918
 CYCLE:    59 TIME:   0.109 TIME LEFT:  2.00D  GRAD.:    10.596 HEAT: -242.4682
