 *******************************************************************************
 ** Site#: 36969        For non-commercial use only    Version 21.051W 64BITS **
 *******************************************************************************
 ** Cite this program as: MOPAC2016, Version: 21.051W, James J. P. Stewart,   **
 ** Stewart Computational Chemistry, web: HTTP://OpenMOPAC.net. Days left: 282**
 *******************************************************************************
 **                                                                           **
 **                                MOPAC2016                                  **
 **                                                                           **
 *******************************************************************************

                              PM7 CALCULATION RESULTS

 *******************************************************************************
 *  CALCULATION DONE:                                Fri May 14 11:45:35 2021  *
 *  PM7        - The PM7 Hamiltonian to be used
 *  GEO-OK     - OVERRIDE INTERATOMIC DISTANCE AND OTHER SAFETY CHECKS
 *  1SCF       - DO 1 SCF AND THEN STOP 
 *  T=         - A TIME OF 172800.0 SECONDS REQUESTED
 *  DUMP=N     - RESTART FILE WRITTEN EVERY 7200.0 SECONDS REQUESTED
 *  RELSCF     - DEFAULT SCF CRITERION MULTIPLIED BY 0.0001
 *              (DEFAULT SCF CRITERION = 0.00010)
 *  GRADIENTS  - ALL GRADIENTS TO BE PRINTED
 *******************************************************************************
PM7 GEO-OK 1SCF GRADIENTS RELSCF=0.0001
 Title: ASE calculation

   ATOM   CHEMICAL          X               Y               Z
  NUMBER   SYMBOL      (ANGSTROMS)     (ANGSTROMS)     (ANGSTROMS)
 
     1       C          0.56877899  *  -1.09805161  *  -0.58711445  *
     2       C          1.63814369  *  -1.04091185  *  -1.47071928  *
     3       H         -0.45645870  *  -1.33301120  *  -0.83675324  *
     4       H          1.60444084  *  -0.85409769  *  -2.51976116  *
     5       C          2.87643858  *  -1.27068353  *  -0.76419695  *
     6       O          4.03775319  *  -1.15653067  *  -1.11236883  *
     7       C          1.12109659  *  -1.55051075  *   0.75471016  *
     8       O          0.55928653  *  -1.76728575  *   1.79362670  *
     9       C          3.42131743  *  -2.16672940  *   1.56090542  *
    10       C          4.12015422  *  -3.38240105  *   1.45639537  *
    11       C          3.57655332  *  -1.34106536  *   2.68756724  *
    12       C          5.09532842  *  -3.63272958  *   2.43454511  *
    13       C          4.50547414  *  -1.65110228  *   3.66887898  *
    14       H          2.94748069  *  -0.45627645  *   2.78991929  *
    15       C          5.29459128  *  -2.78939291  *   3.52063571  *
    16       H          5.72548197  *  -4.51938767  *   2.34893767  *
    17       H          4.61842478  *  -1.01110365  *   4.54026484  *
    18       H          6.05589894  *  -3.02808230  *   4.25916116  *
    19       C          3.91313378  *  -4.44397315  *   0.38641867  *
    20       C          4.92320954  *  -4.19092561  *  -0.74317732  *
    21       H          4.69322020  *  -3.27105891  *  -1.29497899  *
    22       H          5.94074652  *  -4.07738206  *  -0.35056036  *
    23       H          4.92686427  *  -5.01112115  *  -1.46627072  *
    24       C          4.17028148  *  -5.85034257  *   0.98020816  *
    25       H          3.58442903  *  -6.00178267  *   1.89309520  *
    26       H          3.88750183  *  -6.63392551  *   0.26939544  *
    27       H          5.22579407  *  -6.01176681  *   1.21774948  *
    28       C          2.47980145  *  -4.47168061  *  -0.16907267  *
    29       H          1.74336118  *  -4.34346351  *   0.63283716  *
    30       H          2.30864301  *  -3.69329085  *  -0.91934401  *
    31       H          2.26232309  *  -5.42308127  *  -0.66620765  *
    32       N          2.52329124  *  -1.69108130  *   0.56876944  *
    33       C          6.92151560  *  -0.49621640  *   0.81188707  *
    34       O          6.61063278  *   0.65820264  *   0.61178003  *
    35       H          7.78190477  *  -0.83518557  *   1.39012941  *
    36       O          6.24453887  *  -1.53222536  *   0.34959988  *
    37       H          5.38081611  *  -1.34460132  *  -0.17760639  *
    38       C          1.41137105  *   1.60336089  *   1.76497257  *
    39       C          1.17230899  *   1.38730138  *   0.30225178  *
    40       C          2.20706457  *   1.62081845  *  -0.61490401  *
    41       C          3.53505873  *   1.75314746  *  -0.21049264  *
    42       C          3.87362227  *   1.84624606  *   1.25335837  *
    43       C          2.68768318  *   2.40494025  *   2.04021135  *
    44       C         -0.03319347  *   0.84430996  *  -0.14392017  *
    45       C         -1.19555743  *   0.65481348  *   0.77650714  *
    46       N          4.58741489  *   1.76139119  *  -1.04820132  *
    47       C          4.46293970  *   1.64158993  *  -2.51562313  *
    48       C          4.53346670  *   3.04943841  *  -3.12394417  *
    49       C          5.59170596  *   0.75235124  *  -3.04564930  *
    50       H          0.53994276  *   2.12789461  *   2.21319866  *
    51       H          1.44494216  *   0.61998736  *   2.28828875  *
    52       H          1.95933813  *   1.61975574  *  -1.67282779  *
    53       H          4.78035505  *   2.46499260  *   1.42596965  *
    54       H          4.15846242  *   0.83315760  *   1.62221618  *
    55       H          2.52485277  *   3.46632209  *   1.76444366  *
    56       H          2.91588123  *   2.40221654  *   3.12289620  *
    57       H         -0.30326183  *   0.98759177  *  -1.19262327  *
    58       H         -2.03686868  *   0.16160318  *   0.27397393  *
    59       H         -0.94032237  *   0.03279668  *   1.65017709  *
    60       H         -1.56930502  *   1.61410292  *   1.15854345  *
    61       H          5.52770570  *   1.62714252  *  -0.66184063  *
    62       H          3.47635795  *   1.16200588  *  -2.76824814  *
    63       H          4.42348489  *   3.00964371  *  -4.21224496  *
    64       H          3.74059847  *   3.69582946  *  -2.72803104  *
    65       H          5.49061248  *   3.53528673  *  -2.90272116  *
    66       H          6.58352396  *   1.14483097  *  -2.80145569  *
    67       H          5.52788253  *   0.65078354  *  -4.13422270  *
    68       H          5.52106980  *  -0.26386131  *  -2.62342502  *
 


          CARTESIAN COORDINATES 

    NO.       ATOM           X           Y           Z

     1         C          0.5688     -1.0981     -0.5871
     2         C          1.6381     -1.0409     -1.4707
     3         H         -0.4565     -1.3330     -0.8368
     4         H          1.6044     -0.8541     -2.5198
     5         C          2.8764     -1.2707     -0.7642
     6         O          4.0378     -1.1565     -1.1124
     7         C          1.1211     -1.5505      0.7547
     8         O          0.5593     -1.7673      1.7936
     9         C          3.4213     -2.1667      1.5609
    10         C          4.1202     -3.3824      1.4564
    11         C          3.5766     -1.3411      2.6876
    12         C          5.0953     -3.6327      2.4345
    13         C          4.5055     -1.6511      3.6689
    14         H          2.9475     -0.4563      2.7899
    15         C          5.2946     -2.7894      3.5206
    16         H          5.7255     -4.5194      2.3489
    17         H          4.6184     -1.0111      4.5403
    18         H          6.0559     -3.0281      4.2592
    19         C          3.9131     -4.4440      0.3864
    20         C          4.9232     -4.1909     -0.7432
    21         H          4.6932     -3.2711     -1.2950
    22         H          5.9407     -4.0774     -0.3506
    23         H          4.9269     -5.0111     -1.4663
    24         C          4.1703     -5.8503      0.9802
    25         H          3.5844     -6.0018      1.8931
    26         H          3.8875     -6.6339      0.2694
    27         H          5.2258     -6.0118      1.2177
    28         C          2.4798     -4.4717     -0.1691
    29         H          1.7434     -4.3435      0.6328
    30         H          2.3086     -3.6933     -0.9193
    31         H          2.2623     -5.4231     -0.6662
    32         N          2.5233     -1.6911      0.5688
    33         C          6.9215     -0.4962      0.8119
    34         O          6.6106      0.6582      0.6118
    35         H          7.7819     -0.8352      1.3901
    36         O          6.2445     -1.5322      0.3496
    37         H          5.3808     -1.3446     -0.1776
    38         C          1.4114      1.6034      1.7650
    39         C          1.1723      1.3873      0.3023
    40         C          2.2071      1.6208     -0.6149
    41         C          3.5351      1.7531     -0.2105
    42         C          3.8736      1.8462      1.2534
    43         C          2.6877      2.4049      2.0402
    44         C         -0.0332      0.8443     -0.1439
    45         C         -1.1956      0.6548      0.7765
    46         N          4.5874      1.7614     -1.0482
    47         C          4.4629      1.6416     -2.5156
    48         C          4.5335      3.0494     -3.1239
    49         C          5.5917      0.7524     -3.0456
    50         H          0.5399      2.1279      2.2132
    51         H          1.4449      0.6200      2.2883
    52         H          1.9593      1.6198     -1.6728
    53         H          4.7804      2.4650      1.4260
    54         H          4.1585      0.8332      1.6222
    55         H          2.5249      3.4663      1.7644
    56         H          2.9159      2.4022      3.1229
    57         H         -0.3033      0.9876     -1.1926
    58         H         -2.0369      0.1616      0.2740
    59         H         -0.9403      0.0328      1.6502
    60         H         -1.5693      1.6141      1.1585
    61         H          5.5277      1.6271     -0.6618
    62         H          3.4764      1.1620     -2.7682
    63         H          4.4235      3.0096     -4.2122
    64         H          3.7406      3.6958     -2.7280
    65         H          5.4906      3.5353     -2.9027
    66         H          6.5835      1.1448     -2.8015
    67         H          5.5279      0.6508     -4.1342
    68         H          5.5211     -0.2639     -2.6234

 General Reference for PM7:
 "Optimization of Parameters for Semiempirical Methods VI: More Modifications to the 
 NDDO Approximations and Re-optimization of Parameters", J. J. P. Stewart, J. Mol. Mod., 1:32, 19 (2013)
 https://link.springer.com/article/10.1007/s00894-012-1667-x

           Empirical Formula: C26 H36 N2 O4  =    68 atoms



      MOLECULAR POINT GROUP   :   C1  


      RHF CALCULATION, NO. OF DOUBLY OCCUPIED LEVELS = 87

  SCF CRITERION =    0.1000E-07

 -------------------------------------------------------------------------------
 PM7 GEO-OK 1SCF GRADIENTS RELSCF=0.0001
 Title: ASE calculation



     1SCF WAS SPECIFIED, SO BFGS WAS NOT USED                 
     SCF FIELD WAS ACHIEVED                                   


                              PM7 CALCULATION
                                                       MOPAC2016 (Version: 21.051W)
                                                       Fri May 14 11:45:35 2021
                                                       No. of days remaining = 282




          FINAL HEAT OF FORMATION =       -160.49703 KCAL/MOL =    -671.51957 KJ/MOL


          TOTAL ENERGY            =      -5233.15707 EV
          ELECTRONIC ENERGY       =     -55908.87921 EV  POINT GROUP:     C1  
          CORE-CORE REPULSION     =      50675.72214 EV
          COSMO AREA              =        393.04 SQUARE ANGSTROMS
          COSMO VOLUME            =        554.11 CUBIC ANGSTROMS

          GRADIENT NORM           =          2.48974 = 0.30193 PER ATOM
          IONIZATION POTENTIAL    =          7.631711 EV
          HOMO LUMO ENERGIES (EV) =         -7.632 -0.813
          NO. OF FILLED LEVELS    =         87
          MOLECULAR WEIGHT        =        440.5814

          MOLECULAR DIMENSIONS (Angstroms)

            Atom       Atom       Distance
            H    63    H    25    10.91719
            H    58    H    35     9.90799
            H    23    H    56     8.03598


          SCF CALCULATIONS        =          1
 
          WALL-CLOCK TIME         =          0.172 SECONDS
          COMPUTATION TIME        =          0.500 SECONDS

          LARGEST ATOMIC GRADIENTS

          Atom     Label                     Cartesian Gradients           Cartesian Coordinates       |Gradient|
                                           X          Y          Z        X          Y          Z

            32       N                   0.043      0.793      0.161    2.52329   -1.69108    0.56877      0.811
             2       C                  -0.548      0.039     -0.452    1.63814   -1.04091   -1.47072      0.711
             8       O                  -0.262     -0.223      0.531    0.55929   -1.76729    1.79363      0.633
            44       C                  -0.048      0.385     -0.375   -0.03319    0.84431   -0.14392      0.539
             5       C                  -0.332      0.109      0.400    2.87644   -1.27068   -0.76420      0.532
            58       H                   0.400     -0.033     -0.239   -2.03687    0.16160    0.27397      0.467
            46       N                   0.365      0.231     -0.154    4.58741    1.76139   -1.04820      0.458
             4       H                  -0.036     -0.429     -0.109    1.60444   -0.85410   -2.51976      0.444
            57       H                   0.379     -0.188      0.053   -0.30326    0.98759   -1.19262      0.427
            59       H                   0.346     -0.161     -0.093   -0.94032    0.03280    1.65018      0.393



       FINAL  POINT  AND  DERIVATIVES

   PARAMETER     ATOM    TYPE            VALUE        GRADIENT
      1          1  C    CARTESIAN X     0.568779     -0.271353  KCAL/ANGSTROM
      2          1  C    CARTESIAN Y    -1.098052     -0.143732  KCAL/ANGSTROM
      3          1  C    CARTESIAN Z    -0.587114      0.200170  KCAL/ANGSTROM
      4          2  C    CARTESIAN X     1.638144     -0.548476  KCAL/ANGSTROM
      5          2  C    CARTESIAN Y    -1.040912      0.039025  KCAL/ANGSTROM
      6          2  C    CARTESIAN Z    -1.470719     -0.451511  KCAL/ANGSTROM
      7          3  H    CARTESIAN X    -0.456459      0.232507  KCAL/ANGSTROM
      8          3  H    CARTESIAN Y    -1.333011      0.052463  KCAL/ANGSTROM
      9          3  H    CARTESIAN Z    -0.836753      0.152236  KCAL/ANGSTROM
     10          4  H    CARTESIAN X     1.604441     -0.035673  KCAL/ANGSTROM
     11          4  H    CARTESIAN Y    -0.854098     -0.429119  KCAL/ANGSTROM
     12          4  H    CARTESIAN Z    -2.519761     -0.108936  KCAL/ANGSTROM
     13          5  C    CARTESIAN X     2.876439     -0.332430  KCAL/ANGSTROM
     14          5  C    CARTESIAN Y    -1.270684      0.109446  KCAL/ANGSTROM
     15          5  C    CARTESIAN Z    -0.764197      0.400041  KCAL/ANGSTROM
     16          6  O    CARTESIAN X     4.037753      0.064042  KCAL/ANGSTROM
     17          6  O    CARTESIAN Y    -1.156531      0.142639  KCAL/ANGSTROM
     18          6  O    CARTESIAN Z    -1.112369     -0.327885  KCAL/ANGSTROM
     19          7  C    CARTESIAN X     1.121097      0.062303  KCAL/ANGSTROM
     20          7  C    CARTESIAN Y    -1.550511     -0.318638  KCAL/ANGSTROM
     21          7  C    CARTESIAN Z     0.754710     -0.115953  KCAL/ANGSTROM
     22          8  O    CARTESIAN X     0.559287     -0.262222  KCAL/ANGSTROM
     23          8  O    CARTESIAN Y    -1.767286     -0.223389  KCAL/ANGSTROM
     24          8  O    CARTESIAN Z     1.793627      0.530966  KCAL/ANGSTROM
     25          9  C    CARTESIAN X     3.421317     -0.016152  KCAL/ANGSTROM
     26          9  C    CARTESIAN Y    -2.166729     -0.231482  KCAL/ANGSTROM
     27          9  C    CARTESIAN Z     1.560905     -0.223394  KCAL/ANGSTROM
     28         10  C    CARTESIAN X     4.120154     -0.122179  KCAL/ANGSTROM
     29         10  C    CARTESIAN Y    -3.382401      0.032310  KCAL/ANGSTROM
     30         10  C    CARTESIAN Z     1.456395      0.004494  KCAL/ANGSTROM
     31         11  C    CARTESIAN X     3.576553     -0.003795  KCAL/ANGSTROM
     32         11  C    CARTESIAN Y    -1.341065     -0.107688  KCAL/ANGSTROM
     33         11  C    CARTESIAN Z     2.687567      0.007229  KCAL/ANGSTROM
     34         12  C    CARTESIAN X     5.095328     -0.024984  KCAL/ANGSTROM
     35         12  C    CARTESIAN Y    -3.632730     -0.262770  KCAL/ANGSTROM
     36         12  C    CARTESIAN Z     2.434545     -0.196520  KCAL/ANGSTROM
     37         13  C    CARTESIAN X     4.505474     -0.038200  KCAL/ANGSTROM
     38         13  C    CARTESIAN Y    -1.651102     -0.162805  KCAL/ANGSTROM
     39         13  C    CARTESIAN Z     3.668879     -0.151050  KCAL/ANGSTROM
     40         14  H    CARTESIAN X     2.947481      0.041423  KCAL/ANGSTROM
     41         14  H    CARTESIAN Y    -0.456276      0.041850  KCAL/ANGSTROM
     42         14  H    CARTESIAN Z     2.789919     -0.258239  KCAL/ANGSTROM
     43         15  C    CARTESIAN X     5.294591     -0.000122  KCAL/ANGSTROM
     44         15  C    CARTESIAN Y    -2.789393      0.114946  KCAL/ANGSTROM
     45         15  C    CARTESIAN Z     3.520636      0.055420  KCAL/ANGSTROM
     46         16  H    CARTESIAN X     5.725482     -0.093846  KCAL/ANGSTROM
     47         16  H    CARTESIAN Y    -4.519388     -0.253070  KCAL/ANGSTROM
     48         16  H    CARTESIAN Z     2.348938     -0.138823  KCAL/ANGSTROM
     49         17  H    CARTESIAN X     4.618425      0.003844  KCAL/ANGSTROM
     50         17  H    CARTESIAN Y    -1.011104     -0.078774  KCAL/ANGSTROM
     51         17  H    CARTESIAN Z     4.540265      0.000337  KCAL/ANGSTROM
     52         18  H    CARTESIAN X     6.055899      0.106586  KCAL/ANGSTROM
     53         18  H    CARTESIAN Y    -3.028082     -0.163150  KCAL/ANGSTROM
     54         18  H    CARTESIAN Z     4.259161     -0.141428  KCAL/ANGSTROM
     55         19  C    CARTESIAN X     3.913134      0.012356  KCAL/ANGSTROM
     56         19  C    CARTESIAN Y    -4.443973     -0.037807  KCAL/ANGSTROM
     57         19  C    CARTESIAN Z     0.386419     -0.031805  KCAL/ANGSTROM
     58         20  C    CARTESIAN X     4.923210      0.053677  KCAL/ANGSTROM
     59         20  C    CARTESIAN Y    -4.190926      0.024625  KCAL/ANGSTROM
     60         20  C    CARTESIAN Z    -0.743177      0.017535  KCAL/ANGSTROM
     61         21  H    CARTESIAN X     4.693220      0.129400  KCAL/ANGSTROM
     62         21  H    CARTESIAN Y    -3.271059      0.069174  KCAL/ANGSTROM
     63         21  H    CARTESIAN Z    -1.294979      0.082916  KCAL/ANGSTROM
     64         22  H    CARTESIAN X     5.940747      0.027356  KCAL/ANGSTROM
     65         22  H    CARTESIAN Y    -4.077382      0.023126  KCAL/ANGSTROM
     66         22  H    CARTESIAN Z    -0.350560      0.141806  KCAL/ANGSTROM
     67         23  H    CARTESIAN X     4.926864      0.122412  KCAL/ANGSTROM
     68         23  H    CARTESIAN Y    -5.011121      0.017122  KCAL/ANGSTROM
     69         23  H    CARTESIAN Z    -1.466271      0.006866  KCAL/ANGSTROM
     70         24  C    CARTESIAN X     4.170281      0.033193  KCAL/ANGSTROM
     71         24  C    CARTESIAN Y    -5.850343      0.010348  KCAL/ANGSTROM
     72         24  C    CARTESIAN Z     0.980208      0.013414  KCAL/ANGSTROM
     73         25  H    CARTESIAN X     3.584429      0.086597  KCAL/ANGSTROM
     74         25  H    CARTESIAN Y    -6.001783      0.114686  KCAL/ANGSTROM
     75         25  H    CARTESIAN Z     1.893095      0.069577  KCAL/ANGSTROM
     76         26  H    CARTESIAN X     3.887502      0.070522  KCAL/ANGSTROM
     77         26  H    CARTESIAN Y    -6.633926     -0.054209  KCAL/ANGSTROM
     78         26  H    CARTESIAN Z     0.269395      0.072186  KCAL/ANGSTROM
     79         27  H    CARTESIAN X     5.225794      0.033492  KCAL/ANGSTROM
     80         27  H    CARTESIAN Y    -6.011767      0.114043  KCAL/ANGSTROM
     81         27  H    CARTESIAN Z     1.217749      0.126728  KCAL/ANGSTROM
     82         28  C    CARTESIAN X     2.479801     -0.015085  KCAL/ANGSTROM
     83         28  C    CARTESIAN Y    -4.471681      0.015716  KCAL/ANGSTROM
     84         28  C    CARTESIAN Z    -0.169073      0.042095  KCAL/ANGSTROM
     85         29  H    CARTESIAN X     1.743361      0.072726  KCAL/ANGSTROM
     86         29  H    CARTESIAN Y    -4.343464      0.030182  KCAL/ANGSTROM
     87         29  H    CARTESIAN Z     0.632837      0.136813  KCAL/ANGSTROM
     88         30  H    CARTESIAN X     2.308643     -0.083820  KCAL/ANGSTROM
     89         30  H    CARTESIAN Y    -3.693291      0.049103  KCAL/ANGSTROM
     90         30  H    CARTESIAN Z    -0.919344      0.112803  KCAL/ANGSTROM
     91         31  H    CARTESIAN X     2.262323     -0.139286  KCAL/ANGSTROM
     92         31  H    CARTESIAN Y    -5.423081      0.013776  KCAL/ANGSTROM
     93         31  H    CARTESIAN Z    -0.666208      0.035671  KCAL/ANGSTROM
     94         32  N    CARTESIAN X     2.523291      0.043447  KCAL/ANGSTROM
     95         32  N    CARTESIAN Y    -1.691081      0.793327  KCAL/ANGSTROM
     96         32  N    CARTESIAN Z     0.568769      0.160554  KCAL/ANGSTROM
     97         33  C    CARTESIAN X     6.921516     -0.135806  KCAL/ANGSTROM
     98         33  C    CARTESIAN Y    -0.496216     -0.181365  KCAL/ANGSTROM
     99         33  C    CARTESIAN Z     0.811887     -0.044373  KCAL/ANGSTROM
    100         34  O    CARTESIAN X     6.610633      0.010652  KCAL/ANGSTROM
    101         34  O    CARTESIAN Y     0.658203     -0.017664  KCAL/ANGSTROM
    102         34  O    CARTESIAN Z     0.611780     -0.101445  KCAL/ANGSTROM
    103         35  H    CARTESIAN X     7.781905      0.008099  KCAL/ANGSTROM
    104         35  H    CARTESIAN Y    -0.835186      0.332855  KCAL/ANGSTROM
    105         35  H    CARTESIAN Z     1.390129      0.008571  KCAL/ANGSTROM
    106         36  O    CARTESIAN X     6.244539     -0.008050  KCAL/ANGSTROM
    107         36  O    CARTESIAN Y    -1.532225     -0.191889  KCAL/ANGSTROM
    108         36  O    CARTESIAN Z     0.349600      0.341396  KCAL/ANGSTROM
    109         37  H    CARTESIAN X     5.380816     -0.053895  KCAL/ANGSTROM
    110         37  H    CARTESIAN Y    -1.344601     -0.122471  KCAL/ANGSTROM
    111         37  H    CARTESIAN Z    -0.177606     -0.068996  KCAL/ANGSTROM
    112         38  C    CARTESIAN X     1.411371      0.009375  KCAL/ANGSTROM
    113         38  C    CARTESIAN Y     1.603361     -0.038659  KCAL/ANGSTROM
    114         38  C    CARTESIAN Z     1.764973     -0.101586  KCAL/ANGSTROM
    115         39  C    CARTESIAN X     1.172309     -0.029414  KCAL/ANGSTROM
    116         39  C    CARTESIAN Y     1.387301      0.115206  KCAL/ANGSTROM
    117         39  C    CARTESIAN Z     0.302252      0.095196  KCAL/ANGSTROM
    118         40  C    CARTESIAN X     2.207065      0.332331  KCAL/ANGSTROM
    119         40  C    CARTESIAN Y     1.620818     -0.022286  KCAL/ANGSTROM
    120         40  C    CARTESIAN Z    -0.614904     -0.192550  KCAL/ANGSTROM
    121         41  C    CARTESIAN X     3.535059     -0.233242  KCAL/ANGSTROM
    122         41  C    CARTESIAN Y     1.753147      0.186706  KCAL/ANGSTROM
    123         41  C    CARTESIAN Z    -0.210493     -0.006665  KCAL/ANGSTROM
    124         42  C    CARTESIAN X     3.873622     -0.042382  KCAL/ANGSTROM
    125         42  C    CARTESIAN Y     1.846246      0.113341  KCAL/ANGSTROM
    126         42  C    CARTESIAN Z     1.253358     -0.136352  KCAL/ANGSTROM
    127         43  C    CARTESIAN X     2.687683     -0.034488  KCAL/ANGSTROM
    128         43  C    CARTESIAN Y     2.404940     -0.021544  KCAL/ANGSTROM
    129         43  C    CARTESIAN Z     2.040211     -0.017452  KCAL/ANGSTROM
    130         44  C    CARTESIAN X    -0.033193     -0.047511  KCAL/ANGSTROM
    131         44  C    CARTESIAN Y     0.844310      0.385105  KCAL/ANGSTROM
    132         44  C    CARTESIAN Z    -0.143920     -0.374524  KCAL/ANGSTROM
    133         45  C    CARTESIAN X    -1.195557      0.218137  KCAL/ANGSTROM
    134         45  C    CARTESIAN Y     0.654813     -0.032412  KCAL/ANGSTROM
    135         45  C    CARTESIAN Z     0.776507      0.045901  KCAL/ANGSTROM
    136         46  N    CARTESIAN X     4.587415      0.364522  KCAL/ANGSTROM
    137         46  N    CARTESIAN Y     1.761391      0.231430  KCAL/ANGSTROM
    138         46  N    CARTESIAN Z    -1.048201     -0.153879  KCAL/ANGSTROM
    139         47  C    CARTESIAN X     4.462940      0.053542  KCAL/ANGSTROM
    140         47  C    CARTESIAN Y     1.641590      0.200493  KCAL/ANGSTROM
    141         47  C    CARTESIAN Z    -2.515623      0.037277  KCAL/ANGSTROM
    142         48  C    CARTESIAN X     4.533467     -0.025477  KCAL/ANGSTROM
    143         48  C    CARTESIAN Y     3.049438      0.132469  KCAL/ANGSTROM
    144         48  C    CARTESIAN Z    -3.123944      0.024331  KCAL/ANGSTROM
    145         49  C    CARTESIAN X     5.591706     -0.182648  KCAL/ANGSTROM
    146         49  C    CARTESIAN Y     0.752351     -0.002250  KCAL/ANGSTROM
    147         49  C    CARTESIAN Z    -3.045649      0.017187  KCAL/ANGSTROM
    148         50  H    CARTESIAN X     0.539943     -0.017802  KCAL/ANGSTROM
    149         50  H    CARTESIAN Y     2.127895     -0.032621  KCAL/ANGSTROM
    150         50  H    CARTESIAN Z     2.213199     -0.230521  KCAL/ANGSTROM
    151         51  H    CARTESIAN X     1.444942      0.108838  KCAL/ANGSTROM
    152         51  H    CARTESIAN Y     0.619987      0.093433  KCAL/ANGSTROM
    153         51  H    CARTESIAN Z     2.288289      0.085116  KCAL/ANGSTROM
    154         52  H    CARTESIAN X     1.959338     -0.089507  KCAL/ANGSTROM
    155         52  H    CARTESIAN Y     1.619756      0.166125  KCAL/ANGSTROM
    156         52  H    CARTESIAN Z    -1.672828      0.004255  KCAL/ANGSTROM
    157         53  H    CARTESIAN X     4.780355     -0.074055  KCAL/ANGSTROM
    158         53  H    CARTESIAN Y     2.464993      0.115288  KCAL/ANGSTROM
    159         53  H    CARTESIAN Z     1.425970     -0.116234  KCAL/ANGSTROM
    160         54  H    CARTESIAN X     4.158462     -0.104329  KCAL/ANGSTROM
    161         54  H    CARTESIAN Y     0.833158      0.102070  KCAL/ANGSTROM
    162         54  H    CARTESIAN Z     1.622216     -0.296711  KCAL/ANGSTROM
    163         55  H    CARTESIAN X     2.524853     -0.099023  KCAL/ANGSTROM
    164         55  H    CARTESIAN Y     3.466322     -0.060498  KCAL/ANGSTROM
    165         55  H    CARTESIAN Z     1.764444      0.034730  KCAL/ANGSTROM
    166         56  H    CARTESIAN X     2.915881      0.154469  KCAL/ANGSTROM
    167         56  H    CARTESIAN Y     2.402217      0.014209  KCAL/ANGSTROM
    168         56  H    CARTESIAN Z     3.122896     -0.045606  KCAL/ANGSTROM
    169         57  H    CARTESIAN X    -0.303262      0.379406  KCAL/ANGSTROM
    170         57  H    CARTESIAN Y     0.987592     -0.187636  KCAL/ANGSTROM
    171         57  H    CARTESIAN Z    -1.192623      0.052620  KCAL/ANGSTROM
    172         58  H    CARTESIAN X    -2.036869      0.399724  KCAL/ANGSTROM
    173         58  H    CARTESIAN Y     0.161603     -0.033342  KCAL/ANGSTROM
    174         58  H    CARTESIAN Z     0.273974     -0.238640  KCAL/ANGSTROM
    175         59  H    CARTESIAN X    -0.940322      0.346218  KCAL/ANGSTROM
    176         59  H    CARTESIAN Y     0.032797     -0.161209  KCAL/ANGSTROM
    177         59  H    CARTESIAN Z     1.650177     -0.093200  KCAL/ANGSTROM
    178         60  H    CARTESIAN X    -1.569305     -0.054516  KCAL/ANGSTROM
    179         60  H    CARTESIAN Y     1.614103     -0.227169  KCAL/ANGSTROM
    180         60  H    CARTESIAN Z     1.158543      0.031697  KCAL/ANGSTROM
    181         61  H    CARTESIAN X     5.527706     -0.059536  KCAL/ANGSTROM
    182         61  H    CARTESIAN Y     1.627143     -0.125221  KCAL/ANGSTROM
    183         61  H    CARTESIAN Z    -0.661841      0.234801  KCAL/ANGSTROM
    184         62  H    CARTESIAN X     3.476358      0.069014  KCAL/ANGSTROM
    185         62  H    CARTESIAN Y     1.162006      0.219783  KCAL/ANGSTROM
    186         62  H    CARTESIAN Z    -2.768248      0.206335  KCAL/ANGSTROM
    187         63  H    CARTESIAN X     4.423485      0.122696  KCAL/ANGSTROM
    188         63  H    CARTESIAN Y     3.009644     -0.215546  KCAL/ANGSTROM
    189         63  H    CARTESIAN Z    -4.212245      0.130004  KCAL/ANGSTROM
    190         64  H    CARTESIAN X     3.740598      0.086788  KCAL/ANGSTROM
    191         64  H    CARTESIAN Y     3.695829      0.242261  KCAL/ANGSTROM
    192         64  H    CARTESIAN Z    -2.728031      0.138735  KCAL/ANGSTROM
    193         65  H    CARTESIAN X     5.490612      0.092878  KCAL/ANGSTROM
    194         65  H    CARTESIAN Y     3.535287     -0.243865  KCAL/ANGSTROM
    195         65  H    CARTESIAN Z    -2.902721      0.148837  KCAL/ANGSTROM
    196         66  H    CARTESIAN X     6.583524     -0.254764  KCAL/ANGSTROM
    197         66  H    CARTESIAN Y     1.144831     -0.117540  KCAL/ANGSTROM
    198         66  H    CARTESIAN Z    -2.801456      0.261093  KCAL/ANGSTROM
    199         67  H    CARTESIAN X     5.527883     -0.369833  KCAL/ANGSTROM
    200         67  H    CARTESIAN Y     0.650784     -0.053961  KCAL/ANGSTROM
    201         67  H    CARTESIAN Z    -4.134223      0.038224  KCAL/ANGSTROM
    202         68  H    CARTESIAN X     5.521070     -0.045885  KCAL/ANGSTROM
    203         68  H    CARTESIAN Y    -0.263861      0.097540  KCAL/ANGSTROM
    204         68  H    CARTESIAN Z    -2.623425      0.059591  KCAL/ANGSTROM




   ATOM   CHEMICAL          X               Y               Z
  NUMBER   SYMBOL      (ANGSTROMS)     (ANGSTROMS)     (ANGSTROMS)
 
     1       C          0.56877899  *  -1.09805161  *  -0.58711445  *
     2       C          1.63814369  *  -1.04091185  *  -1.47071928  *
     3       H         -0.45645870  *  -1.33301120  *  -0.83675324  *
     4       H          1.60444084  *  -0.85409769  *  -2.51976116  *
     5       C          2.87643858  *  -1.27068353  *  -0.76419695  *
     6       O          4.03775319  *  -1.15653067  *  -1.11236883  *
     7       C          1.12109659  *  -1.55051075  *   0.75471016  *
     8       O          0.55928653  *  -1.76728575  *   1.79362670  *
     9       C          3.42131743  *  -2.16672940  *   1.56090542  *
    10       C          4.12015422  *  -3.38240105  *   1.45639537  *
    11       C          3.57655332  *  -1.34106536  *   2.68756724  *
    12       C          5.09532842  *  -3.63272958  *   2.43454511  *
    13       C          4.50547414  *  -1.65110228  *   3.66887898  *
    14       H          2.94748069  *  -0.45627645  *   2.78991929  *
    15       C          5.29459128  *  -2.78939291  *   3.52063571  *
    16       H          5.72548197  *  -4.51938767  *   2.34893767  *
    17       H          4.61842478  *  -1.01110365  *   4.54026484  *
    18       H          6.05589894  *  -3.02808230  *   4.25916116  *
    19       C          3.91313378  *  -4.44397315  *   0.38641867  *
    20       C          4.92320954  *  -4.19092561  *  -0.74317732  *
    21       H          4.69322020  *  -3.27105891  *  -1.29497899  *
    22       H          5.94074652  *  -4.07738206  *  -0.35056036  *
    23       H          4.92686427  *  -5.01112115  *  -1.46627072  *
    24       C          4.17028148  *  -5.85034257  *   0.98020816  *
    25       H          3.58442903  *  -6.00178267  *   1.89309520  *
    26       H          3.88750183  *  -6.63392551  *   0.26939544  *
    27       H          5.22579407  *  -6.01176681  *   1.21774948  *
    28       C          2.47980145  *  -4.47168061  *  -0.16907267  *
    29       H          1.74336118  *  -4.34346351  *   0.63283716  *
    30       H          2.30864301  *  -3.69329085  *  -0.91934401  *
    31       H          2.26232309  *  -5.42308127  *  -0.66620765  *
    32       N          2.52329124  *  -1.69108130  *   0.56876944  *
    33       C          6.92151560  *  -0.49621640  *   0.81188707  *
    34       O          6.61063278  *   0.65820264  *   0.61178003  *
    35       H          7.78190477  *  -0.83518557  *   1.39012941  *
    36       O          6.24453887  *  -1.53222536  *   0.34959988  *
    37       H          5.38081611  *  -1.34460132  *  -0.17760639  *
    38       C          1.41137105  *   1.60336089  *   1.76497257  *
    39       C          1.17230899  *   1.38730138  *   0.30225178  *
    40       C          2.20706457  *   1.62081845  *  -0.61490401  *
    41       C          3.53505873  *   1.75314746  *  -0.21049264  *
    42       C          3.87362227  *   1.84624606  *   1.25335837  *
    43       C          2.68768318  *   2.40494025  *   2.04021135  *
    44       C         -0.03319347  *   0.84430996  *  -0.14392017  *
    45       C         -1.19555743  *   0.65481348  *   0.77650714  *
    46       N          4.58741489  *   1.76139119  *  -1.04820132  *
    47       C          4.46293970  *   1.64158993  *  -2.51562313  *
    48       C          4.53346670  *   3.04943841  *  -3.12394417  *
    49       C          5.59170596  *   0.75235124  *  -3.04564930  *
    50       H          0.53994276  *   2.12789461  *   2.21319866  *
    51       H          1.44494216  *   0.61998736  *   2.28828875  *
    52       H          1.95933813  *   1.61975574  *  -1.67282779  *
    53       H          4.78035505  *   2.46499260  *   1.42596965  *
    54       H          4.15846242  *   0.83315760  *   1.62221618  *
    55       H          2.52485277  *   3.46632209  *   1.76444366  *
    56       H          2.91588123  *   2.40221654  *   3.12289620  *
    57       H         -0.30326183  *   0.98759177  *  -1.19262327  *
    58       H         -2.03686868  *   0.16160318  *   0.27397393  *
    59       H         -0.94032237  *   0.03279668  *   1.65017709  *
    60       H         -1.56930502  *   1.61410292  *   1.15854345  *
    61       H          5.52770570  *   1.62714252  *  -0.66184063  *
    62       H          3.47635795  *   1.16200588  *  -2.76824814  *
    63       H          4.42348489  *   3.00964371  *  -4.21224496  *
    64       H          3.74059847  *   3.69582946  *  -2.72803104  *
    65       H          5.49061248  *   3.53528673  *  -2.90272116  *
    66       H          6.58352396  *   1.14483097  *  -2.80145569  *
    67       H          5.52788253  *   0.65078354  *  -4.13422270  *
    68       H          5.52106980  *  -0.26386131  *  -2.62342502  *

                             CARTESIAN COORDINATES

   1    C        0.568778993    -1.098051609    -0.587114454
   2    C        1.638143690    -1.040911852    -1.470719277
   3    H       -0.456458704    -1.333011199    -0.836753236
   4    H        1.604440842    -0.854097695    -2.519761158
   5    C        2.876438583    -1.270683533    -0.764196950
   6    O        4.037753192    -1.156530665    -1.112368834
   7    C        1.121096592    -1.550510746     0.754710162
   8    O        0.559286533    -1.767285746     1.793626696
   9    C        3.421317434    -2.166729400     1.560905417
  10    C        4.120154215    -3.382401052     1.456395366
  11    C        3.576553319    -1.341065363     2.687567236
  12    C        5.095328416    -3.632729584     2.434545105
  13    C        4.505474140    -1.651102276     3.668878979
  14    H        2.947480690    -0.456276446     2.789919288
  15    C        5.294591276    -2.789392908     3.520635709
  16    H        5.725481966    -4.519387666     2.348937667
  17    H        4.618424777    -1.011103650     4.540264842
  18    H        6.055898939    -3.028082301     4.259161160
  19    C        3.913133778    -4.443973148     0.386418667
  20    C        4.923209538    -4.190925613    -0.743177321
  21    H        4.693220197    -3.271058914    -1.294978991
  22    H        5.940746520    -4.077382063    -0.350560361
  23    H        4.926864267    -5.011121147    -1.466270719
  24    C        4.170281478    -5.850342573     0.980208156
  25    H        3.584429030    -6.001782670     1.893095200
  26    H        3.887501828    -6.633925510     0.269395443
  27    H        5.225794072    -6.011766811     1.217749477
  28    C        2.479801453    -4.471680607    -0.169072674
  29    H        1.743361179    -4.343463512     0.632837160
  30    H        2.308643011    -3.693290850    -0.919344007
  31    H        2.262323086    -5.423081270    -0.666207646
  32    N        2.523291244    -1.691081304     0.568769441
  33    C        6.921515603    -0.496216397     0.811887074
  34    O        6.610632778     0.658202642     0.611780026
  35    H        7.781904771    -0.835185568     1.390129410
  36    O        6.244538875    -1.532225360     0.349599878
  37    H        5.380816114    -1.344601321    -0.177606386
  38    C        1.411371047     1.603360892     1.764972570
  39    C        1.172308988     1.387301380     0.302251780
  40    C        2.207064565     1.620818448    -0.614904007
  41    C        3.535058729     1.753147462    -0.210492644
  42    C        3.873622269     1.846246057     1.253358365
  43    C        2.687683175     2.404940249     2.040211353
  44    C       -0.033193473     0.844309964    -0.143920172
  45    C       -1.195557429     0.654813480     0.776507141
  46    N        4.587414893     1.761391194    -1.048201325
  47    C        4.462939699     1.641589934    -2.515623135
  48    C        4.533466699     3.049438408    -3.123944174
  49    C        5.591705964     0.752351237    -3.045649299
  50    H        0.539942762     2.127894608     2.213198662
  51    H        1.444942158     0.619987356     2.288288747
  52    H        1.959338132     1.619755741    -1.672827787
  53    H        4.780355054     2.464992599     1.425969655
  54    H        4.158462416     0.833157600     1.622216181
  55    H        2.524852773     3.466322088     1.764443662
  56    H        2.915881228     2.402216543     3.122896205
  57    H       -0.303261831     0.987591767    -1.192623273
  58    H       -2.036868681     0.161603178     0.273973930
  59    H       -0.940322367     0.032796676     1.650177088
  60    H       -1.569305023     1.614102918     1.158543446
  61    H        5.527705701     1.627142519    -0.661840626
  62    H        3.476357950     1.162005876    -2.768248144
  63    H        4.423484891     3.009643711    -4.212244961
  64    H        3.740598467     3.695829461    -2.728031044
  65    H        5.490612477     3.535286733    -2.902721156
  66    H        6.583523957     1.144830970    -2.801455693
  67    H        5.527882533     0.650783539    -4.134222698
  68    H        5.521069804    -0.263861315    -2.623425021


           Empirical Formula: C26 H36 N2 O4  =    68 atoms



      MOLECULAR POINT GROUP   :   C1  


                  EIGENVALUES  
 -37.11979 -36.98485 -31.09974 -30.86927 -30.63733 -30.38262 -29.96910 -29.54920
 -29.15595 -28.74520 -28.01679 -27.11686 -25.85229 -25.38413 -24.97259 -24.64115
 -24.15070 -23.72624 -23.67472 -22.93145 -22.64337 -22.38543 -21.76293 -21.29473
 -20.97581 -19.95580 -19.77743 -19.61136 -19.32324 -18.33433 -17.54984 -17.41922
 -17.18949 -17.07281 -16.70118 -16.61506 -16.22733 -16.19613 -15.85849 -15.59134
 -15.38097 -15.28783 -15.17490 -15.09718 -15.02170 -14.82208 -14.76774 -14.66097
 -14.38275 -14.34473 -14.25311 -14.10572 -14.06421 -13.81253 -13.61963 -13.53800
 -13.49785 -13.39387 -13.33777 -13.25245 -13.13954 -12.89931 -12.84561 -12.79070
 -12.68744 -12.59554 -12.37872 -12.27655 -12.17852 -12.14476 -12.03271 -11.89265
 -11.86318 -11.52966 -11.50075 -11.32221 -11.28801 -11.16792 -11.11733 -10.99745
 -10.90537 -10.44895  -9.99722  -9.48010  -9.17253  -8.98394  -7.63171  -0.81317
   0.26905   0.38474   0.42551   1.03461   1.58466   1.71091   1.95415   2.16720
   2.30866   2.61596   2.70683   3.31777   3.35192   3.74075   3.85899   3.93217
   3.93808   4.04919   4.07280   4.09298   4.25107   4.33805   4.46176   4.54514
   4.58226   4.62050   4.80503   4.83859   4.90210   5.08554   5.14193   5.16142
   5.20635   5.25223   5.27975   5.32278   5.33677   5.42438   5.43717   5.47654
   5.62203   5.65194   5.67170   5.74148   5.74784   5.79225   5.88742   5.92046
   5.95809   5.98130   6.01740   6.07426   6.09347   6.13190   6.16126   6.19537
   6.25601   6.27682   6.33578   6.34688   6.35949   6.36275   6.44034   6.45349
   6.48438   6.57855   6.64211   6.72465   6.77880   6.90901   6.94908   6.99006
   7.24905   7.27828   7.45485   7.58187


              NET ATOMIC CHARGES AND DIPOLE CONTRIBUTIONS

  ATOM NO.   TYPE          CHARGE      No. of ELECS.   s-Pop       p-Pop       
    1          C          -0.007334        4.0073     1.11758     2.88976
    2          C          -0.497957        4.4980     1.06275     3.43521
    3          H           0.170834        0.8292     0.82917
    4          H           0.184357        0.8156     0.81564
    5          C           0.681915        3.3181     1.08537     2.23272
    6          O          -0.618393        6.6184     1.86800     4.75040
    7          C           0.568067        3.4319     1.10446     2.32747
    8          O          -0.464525        6.4645     1.87632     4.58820
    9          C           0.183227        3.8168     1.05075     2.76602
   10          C          -0.023608        4.0236     1.08848     2.93513
   11          C          -0.192202        4.1922     1.08691     3.10529
   12          C          -0.146004        4.1460     1.08576     3.06025
   13          C          -0.144103        4.1441     1.07899     3.06511
   14          H           0.164162        0.8358     0.83584
   15          C          -0.161910        4.1619     1.08070     3.08121
   16          H           0.155570        0.8444     0.84443
   17          H           0.150180        0.8498     0.84982
   18          H           0.146559        0.8534     0.85344
   19          C           0.124375        3.8756     1.04946     2.82617
   20          C          -0.468947        4.4689     1.05972     3.40923
   21          H           0.166156        0.8338     0.83384
   22          H           0.153025        0.8470     0.84698
   23          H           0.144429        0.8556     0.85557
   24          C          -0.461774        4.4618     1.06209     3.39968
   25          H           0.150025        0.8500     0.84998
   26          H           0.147152        0.8528     0.85285
   27          H           0.141062        0.8589     0.85894
   28          C          -0.463757        4.4638     1.05937     3.40438
   29          H           0.154874        0.8451     0.84513
   30          H           0.154750        0.8452     0.84525
   31          H           0.144113        0.8559     0.85589
   32          N          -0.601710        5.6017     1.59577     4.00594
   33          C           0.596353        3.4036     1.13884     2.26481
   34          O          -0.624093        6.6241     1.87254     4.75156
   35          H           0.147935        0.8521     0.85207
   36          O          -0.572244        6.5722     1.83311     4.73913
   37          H           0.413794        0.5862     0.58621
   38          C          -0.313931        4.3139     1.05942     3.25451
   39          C           0.199242        3.8008     1.08526     2.71549
   40          C          -0.482724        4.4827     1.05278     3.42995
   41          C           0.368923        3.6311     1.08515     2.54593
   42          C          -0.332732        4.3327     1.06413     3.26860
   43          C          -0.244548        4.2445     1.05655     3.18800
   44          C          -0.291906        4.2919     1.08495     3.20696
   45          C          -0.439355        4.4394     1.04692     3.39244
   46          N          -0.453174        5.4532     1.54866     3.90451
   47          C           0.123267        3.8767     1.06709     2.80964
   48          C          -0.477221        4.4772     1.06054     3.41668
   49          C          -0.481083        4.4811     1.06047     3.42061
   50          H           0.161038        0.8390     0.83896
   51          H           0.173265        0.8267     0.82673
   52          H           0.178342        0.8217     0.82166
   53          H           0.173803        0.8262     0.82620
   54          H           0.187555        0.8124     0.81244
   55          H           0.145842        0.8542     0.85416
   56          H           0.143574        0.8564     0.85643
   57          H           0.157810        0.8422     0.84219
   58          H           0.142929        0.8571     0.85707
   59          H           0.167928        0.8321     0.83207
   60          H           0.140836        0.8592     0.85916
   61          H           0.347464        0.6525     0.65254
   62          H           0.157840        0.8422     0.84216
   63          H           0.152748        0.8473     0.84725
   64          H           0.156525        0.8435     0.84347
   65          H           0.154135        0.8459     0.84587
   66          H           0.150283        0.8497     0.84972
   67          H           0.155483        0.8445     0.84452
   68          H           0.183493        0.8165     0.81651
 DIPOLE           X         Y         Z       TOTAL
 POINT-CHG.     2.013     1.928    -0.981     2.955
 HYBRID         0.493     0.268     0.341     0.657
 SUM            2.506     2.196    -0.640     3.393


          ATOMIC ORBITAL ELECTRON POPULATIONS

     Atom    s        px        py        pz   
    1  C   1.11758   1.06033   0.86872   0.96071
    2  C   1.06275   0.97061   1.36185   1.10275
    3  H   0.82917
    4  H   0.81564
    5  C   1.08537   0.83114   0.67047   0.73112
    6  O   1.86800   1.34319   1.63503   1.77217
    7  C   1.10446   0.76016   0.70777   0.85954
    8  O   1.87632   1.70539   1.50382   1.37900
    9  C   1.05075   0.91426   0.95878   0.89298
   10  C   1.08848   0.97482   0.96719   0.99311
   11  C   1.08691   1.03684   1.06642   1.00202
   12  C   1.08576   1.01807   1.05859   0.98360
   13  C   1.07899   0.99626   1.02531   1.04354
   14  H   0.83584
   15  C   1.08070   1.04405   0.99938   1.03778
   16  H   0.84443
   17  H   0.84982
   18  H   0.85344
   19  C   1.04946   0.95813   0.92686   0.94118
   20  C   1.05972   1.12205   1.18302   1.10416
   21  H   0.83384
   22  H   0.84698
   23  H   0.85557
   24  C   1.06209   1.16769   1.06942   1.16258
   25  H   0.84998
   26  H   0.85285
   27  H   0.85894
   28  C   1.05937   1.06173   1.18211   1.16054
   29  H   0.84513
   30  H   0.84525
   31  H   0.85589
   32  N   1.59577   1.16689   1.61706   1.22199
   33  C   1.13884   0.80942   0.74830   0.70709
   34  O   1.87254   1.75558   1.34801   1.64796
   35  H   0.85207
   36  O   1.83311   1.53577   1.49846   1.70490
   37  H   0.58621
   38  C   1.05942   1.07089   1.13987   1.04375
   39  C   1.08526   0.96359   0.80524   0.94666
   40  C   1.05278   0.98345   1.33438   1.11211
   41  C   1.08515   0.89488   0.75555   0.89550
   42  C   1.06413   1.08923   1.18390   0.99547
   43  C   1.05655   0.97831   1.10206   1.10763
   44  C   1.08495   0.99313   1.12957   1.08426
   45  C   1.04692   1.08731   1.16911   1.13602
   46  N   1.54866   1.18316   1.58215   1.13921
   47  C   1.06709   1.07535   0.97240   0.76189
   48  C   1.06054   1.19038   1.07131   1.15500
   49  C   1.06047   1.10106   1.15365   1.16590
   50  H   0.83896
   51  H   0.82673
   52  H   0.82166
   53  H   0.82620
   54  H   0.81244
   55  H   0.85416
   56  H   0.85643
   57  H   0.84219
   58  H   0.85707
   59  H   0.83207
   60  H   0.85916
   61  H   0.65254
   62  H   0.84216
   63  H   0.84725
   64  H   0.84347
   65  H   0.84587
   66  H   0.84972
   67  H   0.84452
   68  H   0.81651

 **********************
 *                    *
 * JOB ENDED NORMALLY *
 *                    *
 **********************



 TOTAL JOB TIME:             0.21 SECONDS

 == MOPAC DONE ==
