 *******************************************************************************
 ** Site#: 36969        For non-commercial use only    Version 21.051W 64BITS **
 *******************************************************************************
 ** Cite this program as: MOPAC2016, Version: 21.051W, James J. P. Stewart,   **
 ** Stewart Computational Chemistry, web: HTTP://OpenMOPAC.net. Days left: 292**
 *******************************************************************************
 **                                                                           **
 **                                MOPAC2016                                  **
 **                                                                           **
 *******************************************************************************

                              PM7 CALCULATION RESULTS

 *******************************************************************************
 *  CALCULATION DONE:                                Tue May  4 14:59:44 2021  *
 *  PM7        - The PM7 Hamiltonian to be used
 *  GEO-OK     - OVERRIDE INTERATOMIC DISTANCE AND OTHER SAFETY CHECKS
 *  1SCF       - DO 1 SCF AND THEN STOP 
 *  T=         - A TIME OF 172800.0 SECONDS REQUESTED
 *  DUMP=N     - RESTART FILE WRITTEN EVERY 7200.0 SECONDS REQUESTED
 *  RELSCF     - DEFAULT SCF CRITERION MULTIPLIED BY 0.0001
 *              (DEFAULT SCF CRITERION = 0.00010)
 *  GRADIENTS  - ALL GRADIENTS TO BE PRINTED
 *******************************************************************************
PM7 GEO-OK 1SCF GRADIENTS RELSCF=0.0001
 Title: ASE calculation

   ATOM   CHEMICAL          X               Y               Z
  NUMBER   SYMBOL      (ANGSTROMS)     (ANGSTROMS)     (ANGSTROMS)
 
     1       H          0.72228400  *   4.25799800  *  -1.57062200  *
     2       C          1.44426400  *   4.44001200  *  -0.77128400  *
     3       C          1.04469400  *   4.31031300  *   0.57049400  *
     4       C          2.74539300  *   4.79955000  *  -1.08090100  *
     5       N         -0.29271600  *   3.85433400  *   0.76085300  *
     6       C          1.91528700  *   4.61438000  *   1.62672600  *
     7       C          3.65757900  *   5.00535100  *  -0.04657000  *
     8       H          3.05773000  *   4.90166800  *  -2.11825000  *
     9       C         -0.65910500  *   2.58876600  *   1.25436700  *
    10       C         -1.44788600  *   4.52472200  *   0.22649500  *
    11       C          1.56807400  *   4.65999900  *   3.10715200  *
    12       C          3.24394300  *   4.90785700  *   1.27438400  *
    13       H          4.69695700  *   5.23834000  *  -0.27690300  *
    14       C         -2.16081500  *   2.50138700  *   1.12685500  *
    15       O          0.08937300  *   1.75449000  *   1.70473600  *
    16       C         -2.61254500  *   3.61465700  *   0.53557500  *
    17       O         -1.41377400  *   5.58000300  *  -0.32844200  *
    18       C          2.01320100  *   3.33653600  *   3.74968900  *
    19       C          0.07669800  *   4.90306300  *   3.39350200  *
    20       C          2.32696000  *   5.83149900  *   3.77498800  *
    21       H          3.98435100  *   5.06462100  *   2.06019000  *
    22       H         -2.68904300  *   1.63140500  *   1.47739100  *
    23       H         -3.61398300  *   3.90282000  *   0.26219000  *
    24       H          3.03907600  *   3.07394300  *   3.46401800  *
    25       H          1.97210000  *   3.39104500  *   4.84197800  *
    26       H          1.37425200  *   2.49892500  *   3.44535400  *
    27       H         -0.33019900  *   5.68292800  *   2.74052800  *
    28       H         -0.07637800  *   5.23357500  *   4.42810500  *
    29       H         -0.52342200  *   3.99819000  *   3.27750900  *
    30       H          1.98727000  *   5.98663500  *   4.80442900  *
    31       H          2.16216900  *   6.76566800  *   3.22692200  *
    32       H          3.40492500  *   5.65189700  *   3.82620200  *
    33       C          6.81893100  *   3.41538700  *  -0.81220200  *
    34       C          6.17807900  *   2.37998000  *  -0.13143200  *
    35       C          6.37779300  *   3.80365800  *  -2.07450200  *
    36       H          7.66965300  *   3.91616800  *  -0.35507500  *
    37       C          5.08913600  *   1.73686400  *  -0.71439800  *
    38       H          6.54539700  *   2.07692300  *   0.84842200  *
    39       C          5.29124200  *   3.15453900  *  -2.66125000  *
    40       H          6.88113600  *   4.60911500  *  -2.60392900  *
    41       C          4.35488000  *   0.60229000  *  -0.03705400  *
    42       C          4.64789800  *   2.12353700  *  -1.98457700  *
    43       H          4.94818900  *   3.45317400  *  -3.64992700  *
    44       N          4.93321600  *   0.22063300  *   1.24515600  *
    45       C          2.89746000  *   1.03930100  *   0.14428600  *
    46       H          4.36581200  *  -0.29948700  *  -0.73382600  *
    47       H          3.79124900  *   1.62327800  *  -2.44255800  *
    48       C          5.06423500  *  -1.13301100  *   1.51826000  *
    49       H          4.87350500  *   0.89201200  *   2.00270700  *
    50       O          2.64737100  *   1.51244400  *   1.36069200  *
    51       O          2.05399000  *   0.99363000  *  -0.71899900  *
    52       O          5.40527900  *  -1.27936200  *   2.82021200  *
    53       O          4.93051200  *  -2.01504100  *   0.69767900  *
    54       H          1.63627700  *   1.71527800  *   1.51455100  *
    55       C          5.65390900  *  -2.61225200  *   3.33335600  *
    56       C          5.98909200  *  -2.29282500  *   4.79433700  *
    57       C          6.83834100  *  -3.22397200  *   2.59716000  *
    58       C          4.38211100  *  -3.44170600  *   3.20954400  *
    59       H          5.15266700  *  -1.78570500  *   5.29121200  *
    60       H          6.21371600  *  -3.20653400  *   5.35261700  *
    61       H          6.85748500  *  -1.62656400  *   4.86588800  *
    62       H          7.69575600  *  -2.54083000  *   2.58103400  *
    63       H          7.16014100  *  -4.16001300  *   3.06385200  *
    64       H          6.58736600  *  -3.44850500  *   1.54834500  *
    65       H          3.51428800  *  -2.90528000  *   3.61206800  *
    66       H          4.47090900  *  -4.39133600  *   3.74600200  *
    67       H          4.15634800  *  -3.67809200  *   2.15777500  *
    68       C         -0.76952900  *  -1.44608600  *  -1.23381000  *
    69       N         -0.03205900  *  -0.45899800  *  -2.04533400  *
    70       H         -1.72332200  *  -1.69438000  *  -1.76927300  *
    71       C         -0.65726300  *   0.71155800  *  -2.46660400  *
    72       H          0.94463800  *  -0.35842800  *  -1.76304600  *
    73       C          0.31048200  *   1.74754300  *  -2.98432900  *
    74       C         -2.00121900  *   0.90704700  *  -2.47766700  *
    75       C         -0.37497600  *   2.72974300  *  -3.93676000  *
    76       H          0.75173600  *   2.28538300  *  -2.11527500  *
    77       H          1.16954100  *   1.26353500  *  -3.49373400  *
    78       C         -2.61194000  *   2.08753200  *  -3.04900200  *
    79       H         -2.68164200  *   0.15800700  *  -2.09138500  *
    80       C         -1.68642800  *   3.24261300  *  -3.32964700  *
    81       H          0.29928800  *   3.57299300  *  -4.16989400  *
    82       H         -0.58931400  *   2.22629800  *  -4.90030900  *
    83       C         -3.92558000  *   2.19516400  *  -3.32158200  *
    84       H         -1.48796300  *   3.79202200  *  -2.38829500  *
    85       H         -2.15465700  *   3.97856500  *  -4.01048500  *
    86       C         -4.91522400  *   1.10902200  *  -3.07565400  *
    87       H         -4.61644800  *   0.17635200  *  -3.57746700  *
    88       H         -5.00688000  *   0.88529100  *  -2.00374900  *
    89       H         -5.91376200  *   1.36960100  *  -3.44462000  *
    90       H         -4.33899200  *   3.10235800  *  -3.74870900  *
    91       C          0.09994200  *  -2.71026400  *  -1.13017000  *
    92       H          0.38516400  *  -3.07209100  *  -2.12588800  *
    93       H          1.02389800  *  -2.52475200  *  -0.56975300  *
    94       H         -0.44028700  *  -3.51465800  *  -0.62294600  *
    95       C         -1.08957800  *  -0.90693800  *   0.17112400  *
    96       H         -1.76136200  *  -0.04382500  *   0.11459500  *
    97       H         -1.56631200  *  -1.66985600  *   0.79110300  *
    98       H         -0.18066900  *  -0.57350000  *   0.68952600  *
 


          CARTESIAN COORDINATES 

    NO.       ATOM           X           Y           Z

     1         H          0.7223      4.2580     -1.5706
     2         C          1.4443      4.4400     -0.7713
     3         C          1.0447      4.3103      0.5705
     4         C          2.7454      4.7995     -1.0809
     5         N         -0.2927      3.8543      0.7609
     6         C          1.9153      4.6144      1.6267
     7         C          3.6576      5.0054     -0.0466
     8         H          3.0577      4.9017     -2.1183
     9         C         -0.6591      2.5888      1.2544
    10         C         -1.4479      4.5247      0.2265
    11         C          1.5681      4.6600      3.1072
    12         C          3.2439      4.9079      1.2744
    13         H          4.6970      5.2383     -0.2769
    14         C         -2.1608      2.5014      1.1269
    15         O          0.0894      1.7545      1.7047
    16         C         -2.6125      3.6147      0.5356
    17         O         -1.4138      5.5800     -0.3284
    18         C          2.0132      3.3365      3.7497
    19         C          0.0767      4.9031      3.3935
    20         C          2.3270      5.8315      3.7750
    21         H          3.9844      5.0646      2.0602
    22         H         -2.6890      1.6314      1.4774
    23         H         -3.6140      3.9028      0.2622
    24         H          3.0391      3.0739      3.4640
    25         H          1.9721      3.3910      4.8420
    26         H          1.3743      2.4989      3.4454
    27         H         -0.3302      5.6829      2.7405
    28         H         -0.0764      5.2336      4.4281
    29         H         -0.5234      3.9982      3.2775
    30         H          1.9873      5.9866      4.8044
    31         H          2.1622      6.7657      3.2269
    32         H          3.4049      5.6519      3.8262
    33         C          6.8189      3.4154     -0.8122
    34         C          6.1781      2.3800     -0.1314
    35         C          6.3778      3.8037     -2.0745
    36         H          7.6697      3.9162     -0.3551
    37         C          5.0891      1.7369     -0.7144
    38         H          6.5454      2.0769      0.8484
    39         C          5.2912      3.1545     -2.6612
    40         H          6.8811      4.6091     -2.6039
    41         C          4.3549      0.6023     -0.0371
    42         C          4.6479      2.1235     -1.9846
    43         H          4.9482      3.4532     -3.6499
    44         N          4.9332      0.2206      1.2452
    45         C          2.8975      1.0393      0.1443
    46         H          4.3658     -0.2995     -0.7338
    47         H          3.7912      1.6233     -2.4426
    48         C          5.0642     -1.1330      1.5183
    49         H          4.8735      0.8920      2.0027
    50         O          2.6474      1.5124      1.3607
    51         O          2.0540      0.9936     -0.7190
    52         O          5.4053     -1.2794      2.8202
    53         O          4.9305     -2.0150      0.6977
    54         H          1.6363      1.7153      1.5146
    55         C          5.6539     -2.6123      3.3334
    56         C          5.9891     -2.2928      4.7943
    57         C          6.8383     -3.2240      2.5972
    58         C          4.3821     -3.4417      3.2095
    59         H          5.1527     -1.7857      5.2912
    60         H          6.2137     -3.2065      5.3526
    61         H          6.8575     -1.6266      4.8659
    62         H          7.6958     -2.5408      2.5810
    63         H          7.1601     -4.1600      3.0639
    64         H          6.5874     -3.4485      1.5483
    65         H          3.5143     -2.9053      3.6121
    66         H          4.4709     -4.3913      3.7460
    67         H          4.1563     -3.6781      2.1578
    68         C         -0.7695     -1.4461     -1.2338
    69         N         -0.0321     -0.4590     -2.0453
    70         H         -1.7233     -1.6944     -1.7693
    71         C         -0.6573      0.7116     -2.4666
    72         H          0.9446     -0.3584     -1.7630
    73         C          0.3105      1.7475     -2.9843
    74         C         -2.0012      0.9070     -2.4777
    75         C         -0.3750      2.7297     -3.9368
    76         H          0.7517      2.2854     -2.1153
    77         H          1.1695      1.2635     -3.4937
    78         C         -2.6119      2.0875     -3.0490
    79         H         -2.6816      0.1580     -2.0914
    80         C         -1.6864      3.2426     -3.3296
    81         H          0.2993      3.5730     -4.1699
    82         H         -0.5893      2.2263     -4.9003
    83         C         -3.9256      2.1952     -3.3216
    84         H         -1.4880      3.7920     -2.3883
    85         H         -2.1547      3.9786     -4.0105
    86         C         -4.9152      1.1090     -3.0757
    87         H         -4.6164      0.1764     -3.5775
    88         H         -5.0069      0.8853     -2.0037
    89         H         -5.9138      1.3696     -3.4446
    90         H         -4.3390      3.1024     -3.7487
    91         C          0.0999     -2.7103     -1.1302
    92         H          0.3852     -3.0721     -2.1259
    93         H          1.0239     -2.5248     -0.5698
    94         H         -0.4403     -3.5147     -0.6229
    95         C         -1.0896     -0.9069      0.1711
    96         H         -1.7614     -0.0438      0.1146
    97         H         -1.5663     -1.6699      0.7911
    98         H         -0.1807     -0.5735      0.6895

 General Reference for PM7:
 "Optimization of Parameters for Semiempirical Methods VI: More Modifications to the 
 NDDO Approximations and Re-optimization of Parameters", J. J. P. Stewart, J. Mol. Mod., 1:32, 19 (2013)
 https://link.springer.com/article/10.1007/s00894-012-1667-x

           Empirical Formula: C38 H51 N3 O6  =    98 atoms



      MOLECULAR POINT GROUP   :   C1  


      RHF CALCULATION, NO. OF DOUBLY OCCUPIED LEVELS = 127

  SCF CRITERION =    0.1000E-07

 -------------------------------------------------------------------------------
 PM7 GEO-OK 1SCF GRADIENTS RELSCF=0.0001
 Title: ASE calculation



     1SCF WAS SPECIFIED, SO BFGS WAS NOT USED                 
     SCF FIELD WAS ACHIEVED                                   


                              PM7 CALCULATION
                                                       MOPAC2016 (Version: 21.051W)
                                                       Tue May  4 14:59:44 2021
                                                       No. of days remaining = 292




          FINAL HEAT OF FORMATION =       -259.16603 KCAL/MOL =   -1084.35066 KJ/MOL


          TOTAL ENERGY            =      -7687.66142 EV
          ELECTRONIC ENERGY       =     -97077.51837 EV  POINT GROUP:     C1  
          CORE-CORE REPULSION     =      89389.85695 EV
          COSMO AREA              =        574.57 SQUARE ANGSTROMS
          COSMO VOLUME            =        836.96 CUBIC ANGSTROMS

          GRADIENT NORM           =         15.75594 = 1.59159 PER ATOM
          IONIZATION POTENTIAL    =          7.393044 EV
          HOMO LUMO ENERGIES (EV) =         -7.393 -1.571
          NO. OF FILLED LEVELS    =        127
          MOLECULAR WEIGHT        =        645.8374

          MOLECULAR DIMENSIONS (Angstroms)

            Atom       Atom       Distance
            H    89    H    60    15.66551
            H    92    H    30    11.24619
            H    40    H    97    10.09322


          SCF CALCULATIONS        =          1
 
          WALL-CLOCK TIME         =          0.359 SECONDS
          COMPUTATION TIME        =          1.266 SECONDS

          LARGEST ATOMIC GRADIENTS

          Atom     Label                     Cartesian Gradients           Cartesian Coordinates       |Gradient|
                                           X          Y          Z        X          Y          Z

            54       H                 -10.922      0.219      1.310    1.63628    1.71528    1.51455     11.003
            15       O                  10.922     -0.240     -1.292    0.08937    1.75449    1.70474     11.001
            83       C                  -0.510     -0.501     -1.522   -3.92558    2.19516   -3.32158      1.682
            16       C                   0.471      0.577      1.466   -2.61254    3.61466    0.53558      1.645
            74       C                   0.171      0.006      0.079   -2.00122    0.90705   -2.47767      0.188
             9       C                   0.013      0.148     -0.054   -0.65911    2.58877    1.25437      0.158
             3       C                   0.067     -0.015      0.141    1.04469    4.31031    0.57049      0.157
            90       H                  -0.116      0.097      0.038   -4.33899    3.10236   -3.74871      0.156
            87       H                  -0.055     -0.128      0.062   -4.61645    0.17635   -3.57747      0.152
             2       C                  -0.054     -0.052     -0.126    1.44426    4.44001   -0.77128      0.146



       FINAL  POINT  AND  DERIVATIVES

   PARAMETER     ATOM    TYPE            VALUE        GRADIENT
      1          1  H    CARTESIAN X     0.722284     -0.009449  KCAL/ANGSTROM
      2          1  H    CARTESIAN Y     4.257998     -0.009447  KCAL/ANGSTROM
      3          1  H    CARTESIAN Z    -1.570622      0.032116  KCAL/ANGSTROM
      4          2  C    CARTESIAN X     1.444264     -0.054006  KCAL/ANGSTROM
      5          2  C    CARTESIAN Y     4.440012     -0.052272  KCAL/ANGSTROM
      6          2  C    CARTESIAN Z    -0.771284     -0.125729  KCAL/ANGSTROM
      7          3  C    CARTESIAN X     1.044694      0.066859  KCAL/ANGSTROM
      8          3  C    CARTESIAN Y     4.310313     -0.015156  KCAL/ANGSTROM
      9          3  C    CARTESIAN Z     0.570494      0.141331  KCAL/ANGSTROM
     10          4  C    CARTESIAN X     2.745393      0.066097  KCAL/ANGSTROM
     11          4  C    CARTESIAN Y     4.799550      0.069731  KCAL/ANGSTROM
     12          4  C    CARTESIAN Z    -1.080901      0.030521  KCAL/ANGSTROM
     13          5  N    CARTESIAN X    -0.292716     -0.011098  KCAL/ANGSTROM
     14          5  N    CARTESIAN Y     3.854334      0.102145  KCAL/ANGSTROM
     15          5  N    CARTESIAN Z     0.760853     -0.080694  KCAL/ANGSTROM
     16          6  C    CARTESIAN X     1.915287     -0.098272  KCAL/ANGSTROM
     17          6  C    CARTESIAN Y     4.614380     -0.028362  KCAL/ANGSTROM
     18          6  C    CARTESIAN Z     1.626726     -0.065675  KCAL/ANGSTROM
     19          7  C    CARTESIAN X     3.657579     -0.037334  KCAL/ANGSTROM
     20          7  C    CARTESIAN Y     5.005351      0.016340  KCAL/ANGSTROM
     21          7  C    CARTESIAN Z    -0.046570     -0.090424  KCAL/ANGSTROM
     22          8  H    CARTESIAN X     3.057730     -0.091958  KCAL/ANGSTROM
     23          8  H    CARTESIAN Y     4.901668     -0.058266  KCAL/ANGSTROM
     24          8  H    CARTESIAN Z    -2.118250      0.090921  KCAL/ANGSTROM
     25          9  C    CARTESIAN X    -0.659105      0.013079  KCAL/ANGSTROM
     26          9  C    CARTESIAN Y     2.588766      0.147559  KCAL/ANGSTROM
     27          9  C    CARTESIAN Z     1.254367     -0.053564  KCAL/ANGSTROM
     28         10  C    CARTESIAN X    -1.447886      0.027461  KCAL/ANGSTROM
     29         10  C    CARTESIAN Y     4.524722     -0.003498  KCAL/ANGSTROM
     30         10  C    CARTESIAN Z     0.226495     -0.024123  KCAL/ANGSTROM
     31         11  C    CARTESIAN X     1.568074      0.036674  KCAL/ANGSTROM
     32         11  C    CARTESIAN Y     4.659999     -0.026029  KCAL/ANGSTROM
     33         11  C    CARTESIAN Z     3.107152      0.031505  KCAL/ANGSTROM
     34         12  C    CARTESIAN X     3.243943     -0.094594  KCAL/ANGSTROM
     35         12  C    CARTESIAN Y     4.907857     -0.018469  KCAL/ANGSTROM
     36         12  C    CARTESIAN Z     1.274384      0.100083  KCAL/ANGSTROM
     37         13  H    CARTESIAN X     4.696957     -0.030349  KCAL/ANGSTROM
     38         13  H    CARTESIAN Y     5.238340      0.101726  KCAL/ANGSTROM
     39         13  H    CARTESIAN Z    -0.276903      0.049891  KCAL/ANGSTROM
     40         14  C    CARTESIAN X    -2.160815      0.012174  KCAL/ANGSTROM
     41         14  C    CARTESIAN Y     2.501387     -0.061597  KCAL/ANGSTROM
     42         14  C    CARTESIAN Z     1.126855      0.038645  KCAL/ANGSTROM
     43         15  O    CARTESIAN X     0.089373     10.921952  KCAL/ANGSTROM
     44         15  O    CARTESIAN Y     1.754490     -0.240103  KCAL/ANGSTROM
     45         15  O    CARTESIAN Z     1.704736     -1.291995  KCAL/ANGSTROM
     46         16  C    CARTESIAN X    -2.612545      0.471370  KCAL/ANGSTROM
     47         16  C    CARTESIAN Y     3.614657      0.577477  KCAL/ANGSTROM
     48         16  C    CARTESIAN Z     0.535575      1.466267  KCAL/ANGSTROM
     49         17  O    CARTESIAN X    -1.413774      0.009993  KCAL/ANGSTROM
     50         17  O    CARTESIAN Y     5.580003     -0.031570  KCAL/ANGSTROM
     51         17  O    CARTESIAN Z    -0.328442     -0.016293  KCAL/ANGSTROM
     52         18  C    CARTESIAN X     2.013201     -0.002615  KCAL/ANGSTROM
     53         18  C    CARTESIAN Y     3.336536      0.014589  KCAL/ANGSTROM
     54         18  C    CARTESIAN Z     3.749689      0.048955  KCAL/ANGSTROM
     55         19  C    CARTESIAN X     0.076698      0.050508  KCAL/ANGSTROM
     56         19  C    CARTESIAN Y     4.903063      0.038804  KCAL/ANGSTROM
     57         19  C    CARTESIAN Z     3.393502      0.067518  KCAL/ANGSTROM
     58         20  C    CARTESIAN X     2.326960     -0.062153  KCAL/ANGSTROM
     59         20  C    CARTESIAN Y     5.831499      0.024647  KCAL/ANGSTROM
     60         20  C    CARTESIAN Z     3.774988      0.026399  KCAL/ANGSTROM
     61         21  H    CARTESIAN X     3.984351     -0.079401  KCAL/ANGSTROM
     62         21  H    CARTESIAN Y     5.064621     -0.048184  KCAL/ANGSTROM
     63         21  H    CARTESIAN Z     2.060190     -0.007115  KCAL/ANGSTROM
     64         22  H    CARTESIAN X    -2.689043      0.025999  KCAL/ANGSTROM
     65         22  H    CARTESIAN Y     1.631405      0.016349  KCAL/ANGSTROM
     66         22  H    CARTESIAN Z     1.477391     -0.007849  KCAL/ANGSTROM
     67         23  H    CARTESIAN X    -3.613983     -0.010328  KCAL/ANGSTROM
     68         23  H    CARTESIAN Y     3.902820      0.102713  KCAL/ANGSTROM
     69         23  H    CARTESIAN Z     0.262190     -0.061084  KCAL/ANGSTROM
     70         24  H    CARTESIAN X     3.039076     -0.008893  KCAL/ANGSTROM
     71         24  H    CARTESIAN Y     3.073943     -0.089705  KCAL/ANGSTROM
     72         24  H    CARTESIAN Z     3.464018     -0.027380  KCAL/ANGSTROM
     73         25  H    CARTESIAN X     1.972100      0.017674  KCAL/ANGSTROM
     74         25  H    CARTESIAN Y     3.391045     -0.112458  KCAL/ANGSTROM
     75         25  H    CARTESIAN Z     4.841978     -0.015677  KCAL/ANGSTROM
     76         26  H    CARTESIAN X     1.374252      0.020374  KCAL/ANGSTROM
     77         26  H    CARTESIAN Y     2.498925     -0.066219  KCAL/ANGSTROM
     78         26  H    CARTESIAN Z     3.445354     -0.051735  KCAL/ANGSTROM
     79         27  H    CARTESIAN X    -0.330199      0.029813  KCAL/ANGSTROM
     80         27  H    CARTESIAN Y     5.682928      0.006757  KCAL/ANGSTROM
     81         27  H    CARTESIAN Z     2.740528      0.029910  KCAL/ANGSTROM
     82         28  H    CARTESIAN X    -0.076378     -0.021412  KCAL/ANGSTROM
     83         28  H    CARTESIAN Y     5.233575     -0.014208  KCAL/ANGSTROM
     84         28  H    CARTESIAN Z     4.428105      0.013072  KCAL/ANGSTROM
     85         29  H    CARTESIAN X    -0.523422      0.026162  KCAL/ANGSTROM
     86         29  H    CARTESIAN Y     3.998190      0.056650  KCAL/ANGSTROM
     87         29  H    CARTESIAN Z     3.277509     -0.030559  KCAL/ANGSTROM
     88         30  H    CARTESIAN X     1.987270      0.012322  KCAL/ANGSTROM
     89         30  H    CARTESIAN Y     5.986635      0.040414  KCAL/ANGSTROM
     90         30  H    CARTESIAN Z     4.804429     -0.034326  KCAL/ANGSTROM
     91         31  H    CARTESIAN X     2.162169     -0.031957  KCAL/ANGSTROM
     92         31  H    CARTESIAN Y     6.765668     -0.079331  KCAL/ANGSTROM
     93         31  H    CARTESIAN Z     3.226922     -0.068088  KCAL/ANGSTROM
     94         32  H    CARTESIAN X     3.404925     -0.068287  KCAL/ANGSTROM
     95         32  H    CARTESIAN Y     5.651897      0.051891  KCAL/ANGSTROM
     96         32  H    CARTESIAN Z     3.826202     -0.103728  KCAL/ANGSTROM
     97         33  C    CARTESIAN X     6.818931      0.037690  KCAL/ANGSTROM
     98         33  C    CARTESIAN Y     3.415387      0.053866  KCAL/ANGSTROM
     99         33  C    CARTESIAN Z    -0.812202     -0.035472  KCAL/ANGSTROM
    100         34  C    CARTESIAN X     6.178079     -0.021450  KCAL/ANGSTROM
    101         34  C    CARTESIAN Y     2.379980     -0.019974  KCAL/ANGSTROM
    102         34  C    CARTESIAN Z    -0.131432      0.055318  KCAL/ANGSTROM
    103         35  C    CARTESIAN X     6.377793      0.030737  KCAL/ANGSTROM
    104         35  C    CARTESIAN Y     3.803658     -0.000853  KCAL/ANGSTROM
    105         35  C    CARTESIAN Z    -2.074502      0.021650  KCAL/ANGSTROM
    106         36  H    CARTESIAN X     7.669653      0.032415  KCAL/ANGSTROM
    107         36  H    CARTESIAN Y     3.916168     -0.008063  KCAL/ANGSTROM
    108         36  H    CARTESIAN Z    -0.355075      0.020032  KCAL/ANGSTROM
    109         37  C    CARTESIAN X     5.089136     -0.026939  KCAL/ANGSTROM
    110         37  C    CARTESIAN Y     1.736864      0.052789  KCAL/ANGSTROM
    111         37  C    CARTESIAN Z    -0.714398     -0.010842  KCAL/ANGSTROM
    112         38  H    CARTESIAN X     6.545397      0.018719  KCAL/ANGSTROM
    113         38  H    CARTESIAN Y     2.076923     -0.013625  KCAL/ANGSTROM
    114         38  H    CARTESIAN Z     0.848422      0.026183  KCAL/ANGSTROM
    115         39  C    CARTESIAN X     5.291242      0.014272  KCAL/ANGSTROM
    116         39  C    CARTESIAN Y     3.154539      0.031199  KCAL/ANGSTROM
    117         39  C    CARTESIAN Z    -2.661250     -0.077340  KCAL/ANGSTROM
    118         40  H    CARTESIAN X     6.881136     -0.029949  KCAL/ANGSTROM
    119         40  H    CARTESIAN Y     4.609115     -0.008009  KCAL/ANGSTROM
    120         40  H    CARTESIAN Z    -2.603929      0.041494  KCAL/ANGSTROM
    121         41  C    CARTESIAN X     4.354880      0.039590  KCAL/ANGSTROM
    122         41  C    CARTESIAN Y     0.602290      0.034775  KCAL/ANGSTROM
    123         41  C    CARTESIAN Z    -0.037054      0.003278  KCAL/ANGSTROM
    124         42  C    CARTESIAN X     4.647898     -0.029208  KCAL/ANGSTROM
    125         42  C    CARTESIAN Y     2.123537     -0.019700  KCAL/ANGSTROM
    126         42  C    CARTESIAN Z    -1.984577      0.076959  KCAL/ANGSTROM
    127         43  H    CARTESIAN X     4.948189     -0.003315  KCAL/ANGSTROM
    128         43  H    CARTESIAN Y     3.453174      0.012452  KCAL/ANGSTROM
    129         43  H    CARTESIAN Z    -3.649927     -0.026456  KCAL/ANGSTROM
    130         44  N    CARTESIAN X     4.933216     -0.013520  KCAL/ANGSTROM
    131         44  N    CARTESIAN Y     0.220633     -0.020841  KCAL/ANGSTROM
    132         44  N    CARTESIAN Z     1.245156     -0.023866  KCAL/ANGSTROM
    133         45  C    CARTESIAN X     2.897460      0.028731  KCAL/ANGSTROM
    134         45  C    CARTESIAN Y     1.039301      0.034178  KCAL/ANGSTROM
    135         45  C    CARTESIAN Z     0.144286     -0.092706  KCAL/ANGSTROM
    136         46  H    CARTESIAN X     4.365812      0.061986  KCAL/ANGSTROM
    137         46  H    CARTESIAN Y    -0.299487     -0.012474  KCAL/ANGSTROM
    138         46  H    CARTESIAN Z    -0.733826     -0.041256  KCAL/ANGSTROM
    139         47  H    CARTESIAN X     3.791249      0.005742  KCAL/ANGSTROM
    140         47  H    CARTESIAN Y     1.623278     -0.005101  KCAL/ANGSTROM
    141         47  H    CARTESIAN Z    -2.442558     -0.003651  KCAL/ANGSTROM
    142         48  C    CARTESIAN X     5.064235     -0.015570  KCAL/ANGSTROM
    143         48  C    CARTESIAN Y    -1.133011      0.066046  KCAL/ANGSTROM
    144         48  C    CARTESIAN Z     1.518260      0.073360  KCAL/ANGSTROM
    145         49  H    CARTESIAN X     4.873505     -0.067422  KCAL/ANGSTROM
    146         49  H    CARTESIAN Y     0.892012     -0.021631  KCAL/ANGSTROM
    147         49  H    CARTESIAN Z     2.002707      0.012649  KCAL/ANGSTROM
    148         50  O    CARTESIAN X     2.647371      0.031797  KCAL/ANGSTROM
    149         50  O    CARTESIAN Y     1.512444      0.020213  KCAL/ANGSTROM
    150         50  O    CARTESIAN Z     1.360692     -0.006512  KCAL/ANGSTROM
    151         51  O    CARTESIAN X     2.053990      0.106785  KCAL/ANGSTROM
    152         51  O    CARTESIAN Y     0.993630      0.001035  KCAL/ANGSTROM
    153         51  O    CARTESIAN Z    -0.718999     -0.041685  KCAL/ANGSTROM
    154         52  O    CARTESIAN X     5.405279      0.032819  KCAL/ANGSTROM
    155         52  O    CARTESIAN Y    -1.279362     -0.026379  KCAL/ANGSTROM
    156         52  O    CARTESIAN Z     2.820212     -0.053045  KCAL/ANGSTROM
    157         53  O    CARTESIAN X     4.930512     -0.059519  KCAL/ANGSTROM
    158         53  O    CARTESIAN Y    -2.015041     -0.058166  KCAL/ANGSTROM
    159         53  O    CARTESIAN Z     0.697679     -0.091252  KCAL/ANGSTROM
    160         54  H    CARTESIAN X     1.636277    -10.922169  KCAL/ANGSTROM
    161         54  H    CARTESIAN Y     1.715278      0.218742  KCAL/ANGSTROM
    162         54  H    CARTESIAN Z     1.514551      1.310410  KCAL/ANGSTROM
    163         55  C    CARTESIAN X     5.653909     -0.006907  KCAL/ANGSTROM
    164         55  C    CARTESIAN Y    -2.612252      0.012835  KCAL/ANGSTROM
    165         55  C    CARTESIAN Z     3.333356     -0.007264  KCAL/ANGSTROM
    166         56  C    CARTESIAN X     5.989092      0.000283  KCAL/ANGSTROM
    167         56  C    CARTESIAN Y    -2.292825      0.006133  KCAL/ANGSTROM
    168         56  C    CARTESIAN Z     4.794337     -0.017781  KCAL/ANGSTROM
    169         57  C    CARTESIAN X     6.838341      0.014308  KCAL/ANGSTROM
    170         57  C    CARTESIAN Y    -3.223972     -0.030678  KCAL/ANGSTROM
    171         57  C    CARTESIAN Z     2.597160      0.008211  KCAL/ANGSTROM
    172         58  C    CARTESIAN X     4.382111     -0.005152  KCAL/ANGSTROM
    173         58  C    CARTESIAN Y    -3.441706     -0.003264  KCAL/ANGSTROM
    174         58  C    CARTESIAN Z     3.209544     -0.005479  KCAL/ANGSTROM
    175         59  H    CARTESIAN X     5.152667      0.002247  KCAL/ANGSTROM
    176         59  H    CARTESIAN Y    -1.785705     -0.056525  KCAL/ANGSTROM
    177         59  H    CARTESIAN Z     5.291212      0.001886  KCAL/ANGSTROM
    178         60  H    CARTESIAN X     6.213716     -0.008088  KCAL/ANGSTROM
    179         60  H    CARTESIAN Y    -3.206534      0.011857  KCAL/ANGSTROM
    180         60  H    CARTESIAN Z     5.352617     -0.003240  KCAL/ANGSTROM
    181         61  H    CARTESIAN X     6.857485     -0.002469  KCAL/ANGSTROM
    182         61  H    CARTESIAN Y    -1.626564     -0.030827  KCAL/ANGSTROM
    183         61  H    CARTESIAN Z     4.865888      0.011192  KCAL/ANGSTROM
    184         62  H    CARTESIAN X     7.695756      0.015839  KCAL/ANGSTROM
    185         62  H    CARTESIAN Y    -2.540830     -0.000166  KCAL/ANGSTROM
    186         62  H    CARTESIAN Z     2.581034      0.015558  KCAL/ANGSTROM
    187         63  H    CARTESIAN X     7.160141      0.023423  KCAL/ANGSTROM
    188         63  H    CARTESIAN Y    -4.160013      0.004906  KCAL/ANGSTROM
    189         63  H    CARTESIAN Z     3.063852     -0.013813  KCAL/ANGSTROM
    190         64  H    CARTESIAN X     6.587366      0.031158  KCAL/ANGSTROM
    191         64  H    CARTESIAN Y    -3.448505     -0.016897  KCAL/ANGSTROM
    192         64  H    CARTESIAN Z     1.548345      0.002290  KCAL/ANGSTROM
    193         65  H    CARTESIAN X     3.514288      0.005116  KCAL/ANGSTROM
    194         65  H    CARTESIAN Y    -2.905280      0.005634  KCAL/ANGSTROM
    195         65  H    CARTESIAN Z     3.612068      0.033358  KCAL/ANGSTROM
    196         66  H    CARTESIAN X     4.470909     -0.003900  KCAL/ANGSTROM
    197         66  H    CARTESIAN Y    -4.391336      0.017320  KCAL/ANGSTROM
    198         66  H    CARTESIAN Z     3.746002      0.005725  KCAL/ANGSTROM
    199         67  H    CARTESIAN X     4.156348     -0.023537  KCAL/ANGSTROM
    200         67  H    CARTESIAN Y    -3.678092     -0.023724  KCAL/ANGSTROM
    201         67  H    CARTESIAN Z     2.157775      0.004962  KCAL/ANGSTROM
    202         68  C    CARTESIAN X    -0.769529      0.001929  KCAL/ANGSTROM
    203         68  C    CARTESIAN Y    -1.446086      0.019326  KCAL/ANGSTROM
    204         68  C    CARTESIAN Z    -1.233810     -0.037873  KCAL/ANGSTROM
    205         69  N    CARTESIAN X    -0.032059     -0.012922  KCAL/ANGSTROM
    206         69  N    CARTESIAN Y    -0.458998     -0.035336  KCAL/ANGSTROM
    207         69  N    CARTESIAN Z    -2.045334     -0.031163  KCAL/ANGSTROM
    208         70  H    CARTESIAN X    -1.723322     -0.022915  KCAL/ANGSTROM
    209         70  H    CARTESIAN Y    -1.694380     -0.022923  KCAL/ANGSTROM
    210         70  H    CARTESIAN Z    -1.769273      0.105838  KCAL/ANGSTROM
    211         71  C    CARTESIAN X    -0.657263     -0.109851  KCAL/ANGSTROM
    212         71  C    CARTESIAN Y     0.711558     -0.006145  KCAL/ANGSTROM
    213         71  C    CARTESIAN Z    -2.466604     -0.031034  KCAL/ANGSTROM
    214         72  H    CARTESIAN X     0.944638     -0.074813  KCAL/ANGSTROM
    215         72  H    CARTESIAN Y    -0.358428     -0.087645  KCAL/ANGSTROM
    216         72  H    CARTESIAN Z    -1.763046      0.013868  KCAL/ANGSTROM
    217         73  C    CARTESIAN X     0.310482     -0.059459  KCAL/ANGSTROM
    218         73  C    CARTESIAN Y     1.747543      0.020162  KCAL/ANGSTROM
    219         73  C    CARTESIAN Z    -2.984329     -0.060215  KCAL/ANGSTROM
    220         74  C    CARTESIAN X    -2.001219      0.170978  KCAL/ANGSTROM
    221         74  C    CARTESIAN Y     0.907047      0.006058  KCAL/ANGSTROM
    222         74  C    CARTESIAN Z    -2.477667      0.078878  KCAL/ANGSTROM
    223         75  C    CARTESIAN X    -0.374976      0.013021  KCAL/ANGSTROM
    224         75  C    CARTESIAN Y     2.729743      0.056401  KCAL/ANGSTROM
    225         75  C    CARTESIAN Z    -3.936760      0.004891  KCAL/ANGSTROM
    226         76  H    CARTESIAN X     0.751736      0.071213  KCAL/ANGSTROM
    227         76  H    CARTESIAN Y     2.285383      0.031217  KCAL/ANGSTROM
    228         76  H    CARTESIAN Z    -2.115275      0.020336  KCAL/ANGSTROM
    229         77  H    CARTESIAN X     1.169541      0.075508  KCAL/ANGSTROM
    230         77  H    CARTESIAN Y     1.263535     -0.037518  KCAL/ANGSTROM
    231         77  H    CARTESIAN Z    -3.493734      0.012699  KCAL/ANGSTROM
    232         78  C    CARTESIAN X    -2.611940     -0.023549  KCAL/ANGSTROM
    233         78  C    CARTESIAN Y     2.087532     -0.045200  KCAL/ANGSTROM
    234         78  C    CARTESIAN Z    -3.049002      0.007282  KCAL/ANGSTROM
    235         79  H    CARTESIAN X    -2.681642     -0.002438  KCAL/ANGSTROM
    236         79  H    CARTESIAN Y     0.158007      0.069518  KCAL/ANGSTROM
    237         79  H    CARTESIAN Z    -2.091385     -0.007930  KCAL/ANGSTROM
    238         80  C    CARTESIAN X    -1.686428     -0.024627  KCAL/ANGSTROM
    239         80  C    CARTESIAN Y     3.242613      0.030411  KCAL/ANGSTROM
    240         80  C    CARTESIAN Z    -3.329647     -0.007928  KCAL/ANGSTROM
    241         81  H    CARTESIAN X     0.299288      0.036543  KCAL/ANGSTROM
    242         81  H    CARTESIAN Y     3.572993      0.011103  KCAL/ANGSTROM
    243         81  H    CARTESIAN Z    -4.169894     -0.035002  KCAL/ANGSTROM
    244         82  H    CARTESIAN X    -0.589314      0.059255  KCAL/ANGSTROM
    245         82  H    CARTESIAN Y     2.226298     -0.057496  KCAL/ANGSTROM
    246         82  H    CARTESIAN Z    -4.900309      0.055785  KCAL/ANGSTROM
    247         83  C    CARTESIAN X    -3.925580     -0.509876  KCAL/ANGSTROM
    248         83  C    CARTESIAN Y     2.195164     -0.500675  KCAL/ANGSTROM
    249         83  C    CARTESIAN Z    -3.321582     -1.522279  KCAL/ANGSTROM
    250         84  H    CARTESIAN X    -1.487963      0.043315  KCAL/ANGSTROM
    251         84  H    CARTESIAN Y     3.792022     -0.024701  KCAL/ANGSTROM
    252         84  H    CARTESIAN Z    -2.388295     -0.037255  KCAL/ANGSTROM
    253         85  H    CARTESIAN X    -2.154657      0.026676  KCAL/ANGSTROM
    254         85  H    CARTESIAN Y     3.978565     -0.005109  KCAL/ANGSTROM
    255         85  H    CARTESIAN Z    -4.010485      0.021814  KCAL/ANGSTROM
    256         86  C    CARTESIAN X    -4.915224      0.059377  KCAL/ANGSTROM
    257         86  C    CARTESIAN Y     1.109022      0.059591  KCAL/ANGSTROM
    258         86  C    CARTESIAN Z    -3.075654     -0.037053  KCAL/ANGSTROM
    259         87  H    CARTESIAN X    -4.616448     -0.054793  KCAL/ANGSTROM
    260         87  H    CARTESIAN Y     0.176352     -0.128085  KCAL/ANGSTROM
    261         87  H    CARTESIAN Z    -3.577467      0.061889  KCAL/ANGSTROM
    262         88  H    CARTESIAN X    -5.006880     -0.013492  KCAL/ANGSTROM
    263         88  H    CARTESIAN Y     0.885291     -0.076852  KCAL/ANGSTROM
    264         88  H    CARTESIAN Z    -2.003749      0.059094  KCAL/ANGSTROM
    265         89  H    CARTESIAN X    -5.913762      0.092917  KCAL/ANGSTROM
    266         89  H    CARTESIAN Y     1.369601      0.010926  KCAL/ANGSTROM
    267         89  H    CARTESIAN Z    -3.444620     -0.019075  KCAL/ANGSTROM
    268         90  H    CARTESIAN X    -4.338992     -0.116286  KCAL/ANGSTROM
    269         90  H    CARTESIAN Y     3.102358      0.096547  KCAL/ANGSTROM
    270         90  H    CARTESIAN Z    -3.748709      0.038053  KCAL/ANGSTROM
    271         91  C    CARTESIAN X     0.099942     -0.024598  KCAL/ANGSTROM
    272         91  C    CARTESIAN Y    -2.710264      0.035815  KCAL/ANGSTROM
    273         91  C    CARTESIAN Z    -1.130170      0.012587  KCAL/ANGSTROM
    274         92  H    CARTESIAN X     0.385164     -0.044117  KCAL/ANGSTROM
    275         92  H    CARTESIAN Y    -3.072091     -0.008354  KCAL/ANGSTROM
    276         92  H    CARTESIAN Z    -2.125888     -0.006783  KCAL/ANGSTROM
    277         93  H    CARTESIAN X     1.023898      0.024081  KCAL/ANGSTROM
    278         93  H    CARTESIAN Y    -2.524752      0.029026  KCAL/ANGSTROM
    279         93  H    CARTESIAN Z    -0.569753      0.025936  KCAL/ANGSTROM
    280         94  H    CARTESIAN X    -0.440287     -0.020817  KCAL/ANGSTROM
    281         94  H    CARTESIAN Y    -3.514658     -0.022235  KCAL/ANGSTROM
    282         94  H    CARTESIAN Z    -0.622946      0.017764  KCAL/ANGSTROM
    283         95  C    CARTESIAN X    -1.089578     -0.048127  KCAL/ANGSTROM
    284         95  C    CARTESIAN Y    -0.906938     -0.042740  KCAL/ANGSTROM
    285         95  C    CARTESIAN Z     0.171124      0.020338  KCAL/ANGSTROM
    286         96  H    CARTESIAN X    -1.761362      0.024348  KCAL/ANGSTROM
    287         96  H    CARTESIAN Y    -0.043825     -0.012389  KCAL/ANGSTROM
    288         96  H    CARTESIAN Z     0.114595      0.052980  KCAL/ANGSTROM
    289         97  H    CARTESIAN X    -1.566312      0.030876  KCAL/ANGSTROM
    290         97  H    CARTESIAN Y    -1.669856     -0.008635  KCAL/ANGSTROM
    291         97  H    CARTESIAN Z     0.791103      0.046377  KCAL/ANGSTROM
    292         98  H    CARTESIAN X    -0.180669      0.041783  KCAL/ANGSTROM
    293         98  H    CARTESIAN Y    -0.573500      0.026358  KCAL/ANGSTROM
    294         98  H    CARTESIAN Z     0.689526     -0.006350  KCAL/ANGSTROM




   ATOM   CHEMICAL          X               Y               Z
  NUMBER   SYMBOL      (ANGSTROMS)     (ANGSTROMS)     (ANGSTROMS)
 
     1       H          0.72228400  *   4.25799800  *  -1.57062200  *
     2       C          1.44426400  *   4.44001200  *  -0.77128400  *
     3       C          1.04469400  *   4.31031300  *   0.57049400  *
     4       C          2.74539300  *   4.79955000  *  -1.08090100  *
     5       N         -0.29271600  *   3.85433400  *   0.76085300  *
     6       C          1.91528700  *   4.61438000  *   1.62672600  *
     7       C          3.65757900  *   5.00535100  *  -0.04657000  *
     8       H          3.05773000  *   4.90166800  *  -2.11825000  *
     9       C         -0.65910500  *   2.58876600  *   1.25436700  *
    10       C         -1.44788600  *   4.52472200  *   0.22649500  *
    11       C          1.56807400  *   4.65999900  *   3.10715200  *
    12       C          3.24394300  *   4.90785700  *   1.27438400  *
    13       H          4.69695700  *   5.23834000  *  -0.27690300  *
    14       C         -2.16081500  *   2.50138700  *   1.12685500  *
    15       O          0.08937300  *   1.75449000  *   1.70473600  *
    16       C         -2.61254500  *   3.61465700  *   0.53557500  *
    17       O         -1.41377400  *   5.58000300  *  -0.32844200  *
    18       C          2.01320100  *   3.33653600  *   3.74968900  *
    19       C          0.07669800  *   4.90306300  *   3.39350200  *
    20       C          2.32696000  *   5.83149900  *   3.77498800  *
    21       H          3.98435100  *   5.06462100  *   2.06019000  *
    22       H         -2.68904300  *   1.63140500  *   1.47739100  *
    23       H         -3.61398300  *   3.90282000  *   0.26219000  *
    24       H          3.03907600  *   3.07394300  *   3.46401800  *
    25       H          1.97210000  *   3.39104500  *   4.84197800  *
    26       H          1.37425200  *   2.49892500  *   3.44535400  *
    27       H         -0.33019900  *   5.68292800  *   2.74052800  *
    28       H         -0.07637800  *   5.23357500  *   4.42810500  *
    29       H         -0.52342200  *   3.99819000  *   3.27750900  *
    30       H          1.98727000  *   5.98663500  *   4.80442900  *
    31       H          2.16216900  *   6.76566800  *   3.22692200  *
    32       H          3.40492500  *   5.65189700  *   3.82620200  *
    33       C          6.81893100  *   3.41538700  *  -0.81220200  *
    34       C          6.17807900  *   2.37998000  *  -0.13143200  *
    35       C          6.37779300  *   3.80365800  *  -2.07450200  *
    36       H          7.66965300  *   3.91616800  *  -0.35507500  *
    37       C          5.08913600  *   1.73686400  *  -0.71439800  *
    38       H          6.54539700  *   2.07692300  *   0.84842200  *
    39       C          5.29124200  *   3.15453900  *  -2.66125000  *
    40       H          6.88113600  *   4.60911500  *  -2.60392900  *
    41       C          4.35488000  *   0.60229000  *  -0.03705400  *
    42       C          4.64789800  *   2.12353700  *  -1.98457700  *
    43       H          4.94818900  *   3.45317400  *  -3.64992700  *
    44       N          4.93321600  *   0.22063300  *   1.24515600  *
    45       C          2.89746000  *   1.03930100  *   0.14428600  *
    46       H          4.36581200  *  -0.29948700  *  -0.73382600  *
    47       H          3.79124900  *   1.62327800  *  -2.44255800  *
    48       C          5.06423500  *  -1.13301100  *   1.51826000  *
    49       H          4.87350500  *   0.89201200  *   2.00270700  *
    50       O          2.64737100  *   1.51244400  *   1.36069200  *
    51       O          2.05399000  *   0.99363000  *  -0.71899900  *
    52       O          5.40527900  *  -1.27936200  *   2.82021200  *
    53       O          4.93051200  *  -2.01504100  *   0.69767900  *
    54       H          1.63627700  *   1.71527800  *   1.51455100  *
    55       C          5.65390900  *  -2.61225200  *   3.33335600  *
    56       C          5.98909200  *  -2.29282500  *   4.79433700  *
    57       C          6.83834100  *  -3.22397200  *   2.59716000  *
    58       C          4.38211100  *  -3.44170600  *   3.20954400  *
    59       H          5.15266700  *  -1.78570500  *   5.29121200  *
    60       H          6.21371600  *  -3.20653400  *   5.35261700  *
    61       H          6.85748500  *  -1.62656400  *   4.86588800  *
    62       H          7.69575600  *  -2.54083000  *   2.58103400  *
    63       H          7.16014100  *  -4.16001300  *   3.06385200  *
    64       H          6.58736600  *  -3.44850500  *   1.54834500  *
    65       H          3.51428800  *  -2.90528000  *   3.61206800  *
    66       H          4.47090900  *  -4.39133600  *   3.74600200  *
    67       H          4.15634800  *  -3.67809200  *   2.15777500  *
    68       C         -0.76952900  *  -1.44608600  *  -1.23381000  *
    69       N         -0.03205900  *  -0.45899800  *  -2.04533400  *
    70       H         -1.72332200  *  -1.69438000  *  -1.76927300  *
    71       C         -0.65726300  *   0.71155800  *  -2.46660400  *
    72       H          0.94463800  *  -0.35842800  *  -1.76304600  *
    73       C          0.31048200  *   1.74754300  *  -2.98432900  *
    74       C         -2.00121900  *   0.90704700  *  -2.47766700  *
    75       C         -0.37497600  *   2.72974300  *  -3.93676000  *
    76       H          0.75173600  *   2.28538300  *  -2.11527500  *
    77       H          1.16954100  *   1.26353500  *  -3.49373400  *
    78       C         -2.61194000  *   2.08753200  *  -3.04900200  *
    79       H         -2.68164200  *   0.15800700  *  -2.09138500  *
    80       C         -1.68642800  *   3.24261300  *  -3.32964700  *
    81       H          0.29928800  *   3.57299300  *  -4.16989400  *
    82       H         -0.58931400  *   2.22629800  *  -4.90030900  *
    83       C         -3.92558000  *   2.19516400  *  -3.32158200  *
    84       H         -1.48796300  *   3.79202200  *  -2.38829500  *
    85       H         -2.15465700  *   3.97856500  *  -4.01048500  *
    86       C         -4.91522400  *   1.10902200  *  -3.07565400  *
    87       H         -4.61644800  *   0.17635200  *  -3.57746700  *
    88       H         -5.00688000  *   0.88529100  *  -2.00374900  *
    89       H         -5.91376200  *   1.36960100  *  -3.44462000  *
    90       H         -4.33899200  *   3.10235800  *  -3.74870900  *
    91       C          0.09994200  *  -2.71026400  *  -1.13017000  *
    92       H          0.38516400  *  -3.07209100  *  -2.12588800  *
    93       H          1.02389800  *  -2.52475200  *  -0.56975300  *
    94       H         -0.44028700  *  -3.51465800  *  -0.62294600  *
    95       C         -1.08957800  *  -0.90693800  *   0.17112400  *
    96       H         -1.76136200  *  -0.04382500  *   0.11459500  *
    97       H         -1.56631200  *  -1.66985600  *   0.79110300  *
    98       H         -0.18066900  *  -0.57350000  *   0.68952600  *

                             CARTESIAN COORDINATES

   1    H        0.722284000     4.257998000    -1.570622000
   2    C        1.444264000     4.440012000    -0.771284000
   3    C        1.044694000     4.310313000     0.570494000
   4    C        2.745393000     4.799550000    -1.080901000
   5    N       -0.292716000     3.854334000     0.760853000
   6    C        1.915287000     4.614380000     1.626726000
   7    C        3.657579000     5.005351000    -0.046570000
   8    H        3.057730000     4.901668000    -2.118250000
   9    C       -0.659105000     2.588766000     1.254367000
  10    C       -1.447886000     4.524722000     0.226495000
  11    C        1.568074000     4.659999000     3.107152000
  12    C        3.243943000     4.907857000     1.274384000
  13    H        4.696957000     5.238340000    -0.276903000
  14    C       -2.160815000     2.501387000     1.126855000
  15    O        0.089373000     1.754490000     1.704736000
  16    C       -2.612545000     3.614657000     0.535575000
  17    O       -1.413774000     5.580003000    -0.328442000
  18    C        2.013201000     3.336536000     3.749689000
  19    C        0.076698000     4.903063000     3.393502000
  20    C        2.326960000     5.831499000     3.774988000
  21    H        3.984351000     5.064621000     2.060190000
  22    H       -2.689043000     1.631405000     1.477391000
  23    H       -3.613983000     3.902820000     0.262190000
  24    H        3.039076000     3.073943000     3.464018000
  25    H        1.972100000     3.391045000     4.841978000
  26    H        1.374252000     2.498925000     3.445354000
  27    H       -0.330199000     5.682928000     2.740528000
  28    H       -0.076378000     5.233575000     4.428105000
  29    H       -0.523422000     3.998190000     3.277509000
  30    H        1.987270000     5.986635000     4.804429000
  31    H        2.162169000     6.765668000     3.226922000
  32    H        3.404925000     5.651897000     3.826202000
  33    C        6.818931000     3.415387000    -0.812202000
  34    C        6.178079000     2.379980000    -0.131432000
  35    C        6.377793000     3.803658000    -2.074502000
  36    H        7.669653000     3.916168000    -0.355075000
  37    C        5.089136000     1.736864000    -0.714398000
  38    H        6.545397000     2.076923000     0.848422000
  39    C        5.291242000     3.154539000    -2.661250000
  40    H        6.881136000     4.609115000    -2.603929000
  41    C        4.354880000     0.602290000    -0.037054000
  42    C        4.647898000     2.123537000    -1.984577000
  43    H        4.948189000     3.453174000    -3.649927000
  44    N        4.933216000     0.220633000     1.245156000
  45    C        2.897460000     1.039301000     0.144286000
  46    H        4.365812000    -0.299487000    -0.733826000
  47    H        3.791249000     1.623278000    -2.442558000
  48    C        5.064235000    -1.133011000     1.518260000
  49    H        4.873505000     0.892012000     2.002707000
  50    O        2.647371000     1.512444000     1.360692000
  51    O        2.053990000     0.993630000    -0.718999000
  52    O        5.405279000    -1.279362000     2.820212000
  53    O        4.930512000    -2.015041000     0.697679000
  54    H        1.636277000     1.715278000     1.514551000
  55    C        5.653909000    -2.612252000     3.333356000
  56    C        5.989092000    -2.292825000     4.794337000
  57    C        6.838341000    -3.223972000     2.597160000
  58    C        4.382111000    -3.441706000     3.209544000
  59    H        5.152667000    -1.785705000     5.291212000
  60    H        6.213716000    -3.206534000     5.352617000
  61    H        6.857485000    -1.626564000     4.865888000
  62    H        7.695756000    -2.540830000     2.581034000
  63    H        7.160141000    -4.160013000     3.063852000
  64    H        6.587366000    -3.448505000     1.548345000
  65    H        3.514288000    -2.905280000     3.612068000
  66    H        4.470909000    -4.391336000     3.746002000
  67    H        4.156348000    -3.678092000     2.157775000
  68    C       -0.769529000    -1.446086000    -1.233810000
  69    N       -0.032059000    -0.458998000    -2.045334000
  70    H       -1.723322000    -1.694380000    -1.769273000
  71    C       -0.657263000     0.711558000    -2.466604000
  72    H        0.944638000    -0.358428000    -1.763046000
  73    C        0.310482000     1.747543000    -2.984329000
  74    C       -2.001219000     0.907047000    -2.477667000
  75    C       -0.374976000     2.729743000    -3.936760000
  76    H        0.751736000     2.285383000    -2.115275000
  77    H        1.169541000     1.263535000    -3.493734000
  78    C       -2.611940000     2.087532000    -3.049002000
  79    H       -2.681642000     0.158007000    -2.091385000
  80    C       -1.686428000     3.242613000    -3.329647000
  81    H        0.299288000     3.572993000    -4.169894000
  82    H       -0.589314000     2.226298000    -4.900309000
  83    C       -3.925580000     2.195164000    -3.321582000
  84    H       -1.487963000     3.792022000    -2.388295000
  85    H       -2.154657000     3.978565000    -4.010485000
  86    C       -4.915224000     1.109022000    -3.075654000
  87    H       -4.616448000     0.176352000    -3.577467000
  88    H       -5.006880000     0.885291000    -2.003749000
  89    H       -5.913762000     1.369601000    -3.444620000
  90    H       -4.338992000     3.102358000    -3.748709000
  91    C        0.099942000    -2.710264000    -1.130170000
  92    H        0.385164000    -3.072091000    -2.125888000
  93    H        1.023898000    -2.524752000    -0.569753000
  94    H       -0.440287000    -3.514658000    -0.622946000
  95    C       -1.089578000    -0.906938000     0.171124000
  96    H       -1.761362000    -0.043825000     0.114595000
  97    H       -1.566312000    -1.669856000     0.791103000
  98    H       -0.180669000    -0.573500000     0.689526000


           Empirical Formula: C38 H51 N3 O6  =    98 atoms



      MOLECULAR POINT GROUP   :   C1  


                  EIGENVALUES  
 -38.07637 -36.95013 -35.68677 -32.08118 -31.47386 -31.27899 -30.99222 -30.83539
 -30.64421 -29.96214 -29.58572 -29.56153 -29.52194 -29.21237 -28.47232 -27.59561
 -27.22668 -26.86422 -26.03427 -25.69866 -25.36338 -24.90383 -24.55250 -24.46320
 -24.30634 -24.22395 -24.09520 -24.00541 -23.77558 -23.58007 -22.08003 -22.04764
 -21.88858 -21.44627 -21.29259 -20.93637 -20.75559 -20.56521 -20.21193 -19.98367
 -19.44675 -19.32428 -19.05664 -18.80407 -18.26146 -17.97514 -17.43874 -17.40883
 -17.01272 -16.92091 -16.83993 -16.73565 -16.61537 -16.41343 -16.14097 -15.99808
 -15.84853 -15.75609 -15.62758 -15.57144 -15.48198 -15.45507 -15.23754 -15.15704
 -15.12571 -15.07200 -14.99988 -14.99702 -14.91628 -14.82402 -14.66438 -14.47899
 -14.46031 -14.42164 -14.38170 -14.35743 -14.11444 -14.10027 -13.87144 -13.81131
 -13.76949 -13.74462 -13.54248 -13.46144 -13.38853 -13.32280 -13.25562 -13.23717
 -13.20138 -13.07268 -12.95744 -12.94491 -12.85290 -12.84075 -12.64966 -12.58780
 -12.44472 -12.40015 -12.32939 -12.18898 -12.10320 -12.07526 -12.04008 -12.01024
 -11.94126 -11.85358 -11.83166 -11.80626 -11.66604 -11.65184 -11.49718 -11.44535
 -11.42455 -11.23701 -11.20116 -11.11253 -10.82879 -10.70305 -10.63229 -10.41229
  -9.99441  -9.96639  -9.70875  -9.68622  -9.43597  -9.36714  -7.39304  -1.57138
  -0.03769  -0.01880   0.10655   0.17467   0.68461   0.79266   0.85001   1.04472
   1.09694   1.12694   1.50695   1.96935   2.25310   2.26805   2.44901   2.54973
   2.68336   2.83890   3.17933   3.25221   3.33226   3.53755   3.63145   3.72877
   3.76819   3.87138   4.02261   4.05018   4.09762   4.13302   4.15869   4.23418
   4.25769   4.26935   4.36160   4.41003   4.44402   4.51041   4.57094   4.57586
   4.64111   4.75913   4.81377   4.85518   4.90283   4.94469   4.97674   5.00327
   5.01572   5.06632   5.10288   5.11730   5.15764   5.20008   5.21648   5.54653
   5.55851   5.57841   5.59967   5.60349   5.65471   5.66248   5.67865   5.71467
   5.76671   5.78039   5.79989   5.81647   5.85338   5.86523   5.87871   5.89382
   5.89860   5.91398   5.95488   6.00252   6.01942   6.02490   6.02958   6.05872
   6.07495   6.10227   6.10641   6.12934   6.13624   6.15581   6.17118   6.20682
   6.22111   6.23069   6.25963   6.27530   6.29872   6.57189   6.59453   6.75203
   6.80642   6.85268   6.88439   6.93635   6.96168   6.98213   7.04459   7.07210
   7.16533   7.18837   7.21590   7.24022   7.33136   7.46656   7.64977


              NET ATOMIC CHARGES AND DIPOLE CONTRIBUTIONS

  ATOM NO.   TYPE          CHARGE      No. of ELECS.   s-Pop       p-Pop       
    1          H           0.173279        0.8267     0.82672
    2          C          -0.161010        4.1610     1.08857     3.07244
    3          C           0.146199        3.8538     1.04900     2.80480
    4          C          -0.140972        4.1410     1.08091     3.06007
    5          N          -0.555862        5.5559     1.58973     3.96614
    6          C          -0.019376        4.0194     1.08719     2.93218
    7          C          -0.138551        4.1386     1.08522     3.05333
    8          H           0.158309        0.8417     0.84169
    9          C           0.611746        3.3883     1.09197     2.29629
   10          C           0.563849        3.4362     1.09974     2.33642
   11          C           0.119909        3.8801     1.04985     2.83024
   12          C          -0.163324        4.1633     1.08531     3.07801
   13          H           0.156450        0.8436     0.84355
   14          C          -0.178026        4.1780     1.11367     3.06436
   15          O          -0.494114        6.4941     1.86677     4.62735
   16          C          -0.167215        4.1672     1.11716     3.05005
   17          O          -0.373329        6.3733     1.87642     4.49691
   18          C          -0.462548        4.4625     1.05947     3.40308
   19          C          -0.459938        4.4599     1.05905     3.40088
   20          C          -0.458483        4.4585     1.06167     3.39682
   21          H           0.159079        0.8409     0.84092
   22          H           0.195906        0.8041     0.80409
   23          H           0.196907        0.8031     0.80309
   24          H           0.156033        0.8440     0.84397
   25          H           0.147594        0.8524     0.85241
   26          H           0.158523        0.8415     0.84148
   27          H           0.152772        0.8472     0.84723
   28          H           0.147463        0.8525     0.85254
   29          H           0.141290        0.8587     0.85871
   30          H           0.146659        0.8533     0.85334
   31          H           0.151103        0.8489     0.84890
   32          H           0.145130        0.8549     0.85487
   33          C          -0.154808        4.1548     1.08302     3.07178
   34          C          -0.131881        4.1319     1.08304     3.04884
   35          C          -0.154489        4.1545     1.08413     3.07036
   36          H           0.147013        0.8530     0.85299
   37          C          -0.029429        4.0294     1.07045     2.95898
   38          H           0.161208        0.8388     0.83879
   39          C          -0.146121        4.1461     1.08261     3.06351
   40          H           0.145813        0.8542     0.85419
   41          C           0.017700        3.9823     1.07530     2.90700
   42          C          -0.144133        4.1441     1.08660     3.05753
   43          H           0.150150        0.8499     0.84985
   44          N          -0.580053        5.5801     1.56584     4.01421
   45          C           0.637683        3.3623     1.12681     2.23551
   46          H           0.215379        0.7846     0.78462
   47          H           0.172369        0.8276     0.82763
   48          C           0.745184        3.2548     1.05591     2.19890
   49          H           0.335111        0.6649     0.66489
   50          O          -0.572044        6.5720     1.84496     4.72708
   51          O          -0.580517        6.5805     1.87401     4.70651
   52          O          -0.472052        6.4721     1.86640     4.60565
   53          O          -0.572579        6.5726     1.87999     4.69259
   54          H           0.407720        0.5923     0.59228
   55          C           0.384055        3.6159     1.07992     2.53602
   56          C          -0.487002        4.4870     1.06157     3.42543
   57          C          -0.514019        4.5140     1.06316     3.45086
   58          C          -0.512061        4.5121     1.06322     3.44884
   59          H           0.162004        0.8380     0.83800
   60          H           0.156448        0.8436     0.84355
   61          H           0.160794        0.8392     0.83921
   62          H           0.160301        0.8397     0.83970
   63          H           0.155466        0.8445     0.84453
   64          H           0.183973        0.8160     0.81603
   65          H           0.162404        0.8376     0.83760
   66          H           0.154362        0.8456     0.84564
   67          H           0.183853        0.8161     0.81615
   68          C           0.120783        3.8792     1.06320     2.81602
   69          N          -0.543745        5.5437     1.59399     3.94975
   70          H           0.137033        0.8630     0.86297
   71          C           0.281332        3.7187     1.07458     2.64409
   72          H           0.316337        0.6837     0.68366
   73          C          -0.306919        4.3069     1.06148     3.24544
   74          C          -0.434030        4.4340     1.05532     3.37871
   75          C          -0.249580        4.2496     1.05682     3.19276
   76          H           0.171549        0.8285     0.82845
   77          H           0.159266        0.8407     0.84073
   78          C           0.071508        3.9285     1.06555     2.86294
   79          H           0.159269        0.8407     0.84073
   80          C          -0.288038        4.2880     1.05706     3.23098
   81          H           0.132523        0.8675     0.86748
   82          H           0.144803        0.8552     0.85520
   83          C          -0.251174        4.2512     1.07479     3.17639
   84          H           0.139731        0.8603     0.86027
   85          H           0.141772        0.8582     0.85823
   86          C          -0.422137        4.4221     1.04409     3.37804
   87          H           0.150890        0.8491     0.84911
   88          H           0.141616        0.8584     0.85838
   89          H           0.134811        0.8652     0.86519
   90          H           0.136240        0.8638     0.86376
   91          C          -0.467118        4.4671     1.05935     3.40777
   92          H           0.156708        0.8433     0.84329
   93          H           0.154775        0.8452     0.84523
   94          H           0.144737        0.8553     0.85526
   95          C          -0.495930        4.4959     1.06275     3.43318
   96          H           0.147352        0.8526     0.85265
   97          H           0.145706        0.8543     0.85429
   98          H           0.166673        0.8333     0.83333
 DIPOLE           X         Y         Z       TOTAL
 POINT-CHG.     1.805     0.396     4.476     4.842
 HYBRID         0.085     0.562     1.139     1.273
 SUM            1.891     0.958     5.614     6.001


          ATOMIC ORBITAL ELECTRON POPULATIONS

     Atom    s        px        py        pz   
    1  H   0.82672
    2  C   1.08857   1.03708   1.00995   1.02541
    3  C   1.04900   0.79523   1.03350   0.97608
    4  C   1.08091   0.98781   0.99882   1.07344
    5  N   1.58973   1.15127   1.24479   1.57007
    6  C   1.08719   0.97811   0.96481   0.98927
    7  C   1.08522   1.07457   0.98895   0.98981
    8  H   0.84169
    9  C   1.09197   0.87053   0.73343   0.69233
   10  C   1.09974   0.81113   0.80042   0.72487
   11  C   1.04985   0.95339   0.95663   0.92021
   12  C   1.08531   1.02362   1.01231   1.04209
   13  H   0.84355
   14  C   1.11367   1.00000   1.05811   1.00624
   15  O   1.86677   1.63043   1.49908   1.49784
   16  C   1.11716   1.08133   0.99181   0.97692
   17  O   1.87642   1.83452   1.27249   1.38991
   18  C   1.05947   1.17730   1.07394   1.15183
   19  C   1.05905   1.05584   1.16946   1.17558
   20  C   1.06167   1.14337   1.10338   1.15008
   21  H   0.84092
   22  H   0.80409
   23  H   0.80309
   24  H   0.84397
   25  H   0.85241
   26  H   0.84148
   27  H   0.84723
   28  H   0.85254
   29  H   0.85871
   30  H   0.85334
   31  H   0.84890
   32  H   0.85487
   33  C   1.08302   1.04878   1.01619   1.00682
   34  C   1.08304   0.99344   0.98762   1.06778
   35  C   1.08413   1.01365   1.04452   1.01219
   36  H   0.85299
   37  C   1.07045   0.99705   0.97678   0.98515
   38  H   0.83879
   39  C   1.08261   1.00026   1.00006   1.06319
   40  H   0.85419
   41  C   1.07530   0.93034   1.07591   0.90075
   42  C   1.08660   1.05067   1.01243   0.99443
   43  H   0.84985
   44  N   1.56584   1.67719   1.15614   1.18088
   45  C   1.12681   0.84561   0.65961   0.73029
   46  H   0.78462
   47  H   0.82763
   48  C   1.05591   0.70087   0.75197   0.74606
   49  H   0.66489
   50  O   1.84496   1.52420   1.76470   1.43818
   51  O   1.87401   1.56976   1.60074   1.53601
   52  O   1.86640   1.82655   1.43469   1.34441
   53  O   1.87999   1.62420   1.52067   1.54773
   54  H   0.59228
   55  C   1.07992   0.92183   0.73612   0.87807
   56  C   1.06157   1.18868   1.17469   1.06207
   57  C   1.06316   1.11038   1.16130   1.17918
   58  C   1.06322   1.09668   1.14233   1.20983
   59  H   0.83800
   60  H   0.84355
   61  H   0.83921
   62  H   0.83970
   63  H   0.84453
   64  H   0.81603
   65  H   0.83760
   66  H   0.84564
   67  H   0.81615
   68  C   1.06320   1.00962   0.88384   0.92256
   69  N   1.59399   1.18741   1.22912   1.53321
   70  H   0.86297
   71  C   1.07458   0.95243   0.81782   0.87384
   72  H   0.68366
   73  C   1.06148   1.07020   1.06115   1.11409
   74  C   1.05532   1.01578   1.10922   1.25371
   75  C   1.05682   1.03139   1.08219   1.07917
   76  H   0.82845
   77  H   0.84073
   78  C   1.06555   0.96103   0.95160   0.95032
   79  H   0.84073
   80  C   1.05706   1.03404   1.06300   1.13393
   81  H   0.86748
   82  H   0.85520
   83  C   1.07479   0.99639   1.06114   1.11885
   84  H   0.86027
   85  H   0.85823
   86  C   1.04409   1.10742   1.11211   1.15852
   87  H   0.84911
   88  H   0.85838
   89  H   0.86519
   90  H   0.86376
   91  C   1.05935   1.14134   1.08344   1.18299
   92  H   0.84329
   93  H   0.84523
   94  H   0.85526
   95  C   1.06275   1.18828   1.16185   1.08305
   96  H   0.85265
   97  H   0.85429
   98  H   0.83333

 **********************
 *                    *
 * JOB ENDED NORMALLY *
 *                    *
 **********************



 TOTAL JOB TIME:             0.39 SECONDS

 == MOPAC DONE ==
