 *******************************************************************************
 ** Site#: 36969        For non-commercial use only    Version 21.051W 64BITS **
 *******************************************************************************
 ** Cite this program as: MOPAC2016, Version: 21.051W, James J. P. Stewart,   **
 ** Stewart Computational Chemistry, web: HTTP://OpenMOPAC.net. Days left: 282**
 *******************************************************************************
 **                                                                           **
 **                                MOPAC2016                                  **
 **                                                                           **
 *******************************************************************************

                              PM7 CALCULATION RESULTS

 *******************************************************************************
 *  CALCULATION DONE:                                Fri May 14 11:45:35 2021  *
 *  PM7        - The PM7 Hamiltonian to be used
 *  LET        - OVERRIDE SOME SAFETY CHECKS
 *  FORCE      - FORCE CALCULATION SPECIFIED
 *  T=         - A TIME OF 172800.0 SECONDS REQUESTED
 *  DUMP=N     - RESTART FILE WRITTEN EVERY 7200.0 SECONDS REQUESTED
 *******************************************************************************
PM7 FORCE LET
 TEST_FREQ

   ATOM   CHEMICAL          X               Y               Z
  NUMBER   SYMBOL      (ANGSTROMS)     (ANGSTROMS)     (ANGSTROMS)
 
     1       C          0.56877899  *  -1.09805161  *  -0.58711445  *
     2       C          1.63814369  *  -1.04091185  *  -1.47071928  *
     3       H         -0.45645870  *  -1.33301120  *  -0.83675324  *
     4       H          1.60444084  *  -0.85409769  *  -2.51976116  *
     5       C          2.87643858  *  -1.27068353  *  -0.76419695  *
     6       O          4.03775319  *  -1.15653067  *  -1.11236883  *
     7       C          1.12109659  *  -1.55051075  *   0.75471016  *
     8       O          0.55928653  *  -1.76728575  *   1.79362670  *
     9       C          3.42131743  *  -2.16672940  *   1.56090542  *
    10       C          4.12015422  *  -3.38240105  *   1.45639537  *
    11       C          3.57655332  *  -1.34106536  *   2.68756724  *
    12       C          5.09532842  *  -3.63272958  *   2.43454511  *
    13       C          4.50547414  *  -1.65110228  *   3.66887898  *
    14       H          2.94748069  *  -0.45627645  *   2.78991929  *
    15       C          5.29459128  *  -2.78939291  *   3.52063571  *
    16       H          5.72548197  *  -4.51938767  *   2.34893767  *
    17       H          4.61842478  *  -1.01110365  *   4.54026484  *
    18       H          6.05589894  *  -3.02808230  *   4.25916116  *
    19       C          3.91313378  *  -4.44397315  *   0.38641867  *
    20       C          4.92320954  *  -4.19092561  *  -0.74317732  *
    21       H          4.69322020  *  -3.27105891  *  -1.29497899  *
    22       H          5.94074652  *  -4.07738206  *  -0.35056036  *
    23       H          4.92686427  *  -5.01112115  *  -1.46627072  *
    24       C          4.17028148  *  -5.85034257  *   0.98020816  *
    25       H          3.58442903  *  -6.00178267  *   1.89309520  *
    26       H          3.88750183  *  -6.63392551  *   0.26939544  *
    27       H          5.22579407  *  -6.01176681  *   1.21774948  *
    28       C          2.47980145  *  -4.47168061  *  -0.16907267  *
    29       H          1.74336118  *  -4.34346351  *   0.63283716  *
    30       H          2.30864301  *  -3.69329085  *  -0.91934401  *
    31       H          2.26232309  *  -5.42308127  *  -0.66620765  *
    32       N          2.52329124  *  -1.69108130  *   0.56876944  *
    33       C          6.92151560  *  -0.49621640  *   0.81188707  *
    34       O          6.61063278  *   0.65820264  *   0.61178003  *
    35       H          7.78190477  *  -0.83518557  *   1.39012941  *
    36       O          6.24453887  *  -1.53222536  *   0.34959988  *
    37       H          5.38081611  *  -1.34460132  *  -0.17760639  *
    38       C          1.41137105  *   1.60336089  *   1.76497257  *
    39       C          1.17230899  *   1.38730138  *   0.30225178  *
    40       C          2.20706457  *   1.62081845  *  -0.61490401  *
    41       C          3.53505873  *   1.75314746  *  -0.21049264  *
    42       C          3.87362227  *   1.84624606  *   1.25335837  *
    43       C          2.68768318  *   2.40494025  *   2.04021135  *
    44       C         -0.03319347  *   0.84430996  *  -0.14392017  *
    45       C         -1.19555743  *   0.65481348  *   0.77650714  *
    46       N          4.58741489  *   1.76139119  *  -1.04820132  *
    47       C          4.46293970  *   1.64158993  *  -2.51562313  *
    48       C          4.53346670  *   3.04943841  *  -3.12394417  *
    49       C          5.59170596  *   0.75235124  *  -3.04564930  *
    50       H          0.53994276  *   2.12789461  *   2.21319866  *
    51       H          1.44494216  *   0.61998736  *   2.28828875  *
    52       H          1.95933813  *   1.61975574  *  -1.67282779  *
    53       H          4.78035505  *   2.46499260  *   1.42596965  *
    54       H          4.15846242  *   0.83315760  *   1.62221618  *
    55       H          2.52485277  *   3.46632209  *   1.76444366  *
    56       H          2.91588123  *   2.40221654  *   3.12289620  *
    57       H         -0.30326183  *   0.98759177  *  -1.19262327  *
    58       H         -2.03686868  *   0.16160318  *   0.27397393  *
    59       H         -0.94032237  *   0.03279668  *   1.65017709  *
    60       H         -1.56930502  *   1.61410292  *   1.15854345  *
    61       H          5.52770570  *   1.62714252  *  -0.66184063  *
    62       H          3.47635795  *   1.16200588  *  -2.76824814  *
    63       H          4.42348489  *   3.00964371  *  -4.21224496  *
    64       H          3.74059847  *   3.69582946  *  -2.72803104  *
    65       H          5.49061248  *   3.53528673  *  -2.90272116  *
    66       H          6.58352396  *   1.14483097  *  -2.80145569  *
    67       H          5.52788253  *   0.65078354  *  -4.13422270  *
    68       H          5.52106980  *  -0.26386131  *  -2.62342502  *
 


          CARTESIAN COORDINATES 

    NO.       ATOM           X           Y           Z

     1         C          0.5688     -1.0981     -0.5871
     2         C          1.6381     -1.0409     -1.4707
     3         H         -0.4565     -1.3330     -0.8368
     4         H          1.6044     -0.8541     -2.5198
     5         C          2.8764     -1.2707     -0.7642
     6         O          4.0378     -1.1565     -1.1124
     7         C          1.1211     -1.5505      0.7547
     8         O          0.5593     -1.7673      1.7936
     9         C          3.4213     -2.1667      1.5609
    10         C          4.1202     -3.3824      1.4564
    11         C          3.5766     -1.3411      2.6876
    12         C          5.0953     -3.6327      2.4345
    13         C          4.5055     -1.6511      3.6689
    14         H          2.9475     -0.4563      2.7899
    15         C          5.2946     -2.7894      3.5206
    16         H          5.7255     -4.5194      2.3489
    17         H          4.6184     -1.0111      4.5403
    18         H          6.0559     -3.0281      4.2592
    19         C          3.9131     -4.4440      0.3864
    20         C          4.9232     -4.1909     -0.7432
    21         H          4.6932     -3.2711     -1.2950
    22         H          5.9407     -4.0774     -0.3506
    23         H          4.9269     -5.0111     -1.4663
    24         C          4.1703     -5.8503      0.9802
    25         H          3.5844     -6.0018      1.8931
    26         H          3.8875     -6.6339      0.2694
    27         H          5.2258     -6.0118      1.2177
    28         C          2.4798     -4.4717     -0.1691
    29         H          1.7434     -4.3435      0.6328
    30         H          2.3086     -3.6933     -0.9193
    31         H          2.2623     -5.4231     -0.6662
    32         N          2.5233     -1.6911      0.5688
    33         C          6.9215     -0.4962      0.8119
    34         O          6.6106      0.6582      0.6118
    35         H          7.7819     -0.8352      1.3901
    36         O          6.2445     -1.5322      0.3496
    37         H          5.3808     -1.3446     -0.1776
    38         C          1.4114      1.6034      1.7650
    39         C          1.1723      1.3873      0.3023
    40         C          2.2071      1.6208     -0.6149
    41         C          3.5351      1.7531     -0.2105
    42         C          3.8736      1.8462      1.2534
    43         C          2.6877      2.4049      2.0402
    44         C         -0.0332      0.8443     -0.1439
    45         C         -1.1956      0.6548      0.7765
    46         N          4.5874      1.7614     -1.0482
    47         C          4.4629      1.6416     -2.5156
    48         C          4.5335      3.0494     -3.1239
    49         C          5.5917      0.7524     -3.0456
    50         H          0.5399      2.1279      2.2132
    51         H          1.4449      0.6200      2.2883
    52         H          1.9593      1.6198     -1.6728
    53         H          4.7804      2.4650      1.4260
    54         H          4.1585      0.8332      1.6222
    55         H          2.5249      3.4663      1.7644
    56         H          2.9159      2.4022      3.1229
    57         H         -0.3033      0.9876     -1.1926
    58         H         -2.0369      0.1616      0.2740
    59         H         -0.9403      0.0328      1.6502
    60         H         -1.5693      1.6141      1.1585
    61         H          5.5277      1.6271     -0.6618
    62         H          3.4764      1.1620     -2.7682
    63         H          4.4235      3.0096     -4.2122
    64         H          3.7406      3.6958     -2.7280
    65         H          5.4906      3.5353     -2.9027
    66         H          6.5835      1.1448     -2.8015
    67         H          5.5279      0.6508     -4.1342
    68         H          5.5211     -0.2639     -2.6234

 General Reference for PM7:
 "Optimization of Parameters for Semiempirical Methods VI: More Modifications to the 
 NDDO Approximations and Re-optimization of Parameters", J. J. P. Stewart, J. Mol. Mod., 1:32, 19 (2013)
 https://link.springer.com/article/10.1007/s00894-012-1667-x

           Empirical Formula: C26 H36 N2 O4  =    68 atoms



      MOLECULAR POINT GROUP   :   C1  


      RHF CALCULATION, NO. OF DOUBLY OCCUPIED LEVELS = 87



          HEAT OF FORMATION =    -160.497030 KCALS/MOLE


          CARTESIAN COORDINATE DERIVATIVES

   NUMBER  ATOM         X            Y            Z

     1       C     -0.345170     0.024184    -0.121695
     2       C     -0.137554     0.711945     0.238970
     3       H      0.088172    -0.277543    -0.012849
     4       H      0.026532     0.213021    -0.394574
     5       C     -0.516312    -0.188557     0.077438
     6       O      0.265169     0.200573     0.194765
     7       C      0.106597     0.065078    -0.320238
     8       O     -0.537883    -0.132335    -0.243993
     9       C      0.147700     0.256186    -0.177232
    10       C     -0.107849     0.123134     0.049099
    11       C     -0.016729     0.006623    -0.051107
    12       C      0.117063     0.244857    -0.261094
    13       C      0.089947     0.141987    -0.137207
    14       H      0.186533     0.168347     0.066827
    15       C     -0.058363    -0.075055     0.116988
    16       H     -0.005700     0.233063    -0.214258
    17       H     -0.006605    -0.000519    -0.067841
    18       H      0.165045     0.070400    -0.165486
    19       C      0.016197    -0.011312    -0.012717
    20       C      0.032619    -0.023591     0.018847
    21       H      0.052907    -0.146199     0.018406
    22       H     -0.066119    -0.139787    -0.006142
    23       H      0.083151    -0.095873     0.003277
    24       C      0.023190    -0.017471    -0.012091
    25       H      0.029971    -0.117139     0.085900
    26       H      0.003639    -0.103017    -0.065978
    27       H     -0.051771    -0.146974     0.078667
    28       C     -0.035315    -0.047783     0.005589
    29       H     -0.033785    -0.140953    -0.002145
    30       H     -0.129101    -0.035456     0.032029
    31       H     -0.131428     0.037552     0.043287
    32       N     -0.032064    -0.321742     0.708947
    33       C     -0.083590     0.176494    -0.132280
    34       O      0.061937     0.111589    -0.031511
    35       H      0.012270    -0.089528     0.307266
    36       O     -0.219555    -0.247006    -0.198203
    37       H     -0.002197     0.098864    -0.108413
    38       C      0.067359     0.091001    -0.028303
    39       C     -0.097504    -0.083886     0.081644
    40       C      0.375554     0.018217    -0.043429
    41       C     -0.159983     0.051208     0.216339
    42       C      0.064682     0.074732     0.137314
    43       C     -0.021047     0.031969     0.008357
    44       C      0.224220     0.155758     0.454805
    45       C      0.140491    -0.128147    -0.069277
    46       N      0.387457    -0.106775     0.196401
    47       C      0.026025    -0.122118     0.185028
    48       C     -0.017578    -0.017882     0.116973
    49       C     -0.175918     0.123981     0.024538
    50       H      0.121174     0.204389     0.009263
    51       H      0.039277    -0.143681     0.048088
    52       H     -0.063508     0.003987     0.175316
    53       H      0.028926     0.089229     0.153206
    54       H      0.112951     0.273326     0.153730
    55       H     -0.100726     0.055288    -0.051758
    56       H      0.149126    -0.070321    -0.008386
    57       H      0.253126    -0.231541    -0.265039
    58       H      0.463576    -0.076109    -0.059954
    59       H      0.324066    -0.094924    -0.216806
    60       H     -0.082495     0.067362    -0.213795
    61       H     -0.201181    -0.117651    -0.154488
    62       H     -0.063108    -0.266456     0.175030
    63       H      0.003930    -0.123386    -0.253798
    64       H     -0.023562    -0.203172     0.194724
    65       H     -0.025573    -0.126562    -0.269639
    66       H     -0.363130    -0.025202    -0.103894
    67       H     -0.313894     0.205437     0.011735
    68       H     -0.063641    -0.030959     0.087711
 


          GRADIENT NORM =   2.50463


          TIME FOR SCF CALCULATION =    0.09

          TIME FOR DERIVATIVES     =    0.07

          MOLECULAR WEIGHT =  440.58



          ROTATIONAL CONSTANTS IN CM(-1)

          A =    0.00613488   B =    0.00466140   C =    0.00384477



           PRINCIPAL MOMENTS OF INERTIA IN UNITS OF 10**(-40)*GRAM-CM**2

          A =     4562.8864   B =     6005.2328   C =     7280.7388


          ORIENTATION OF MOLECULE IN FORCE CALCULATION

    NO.       ATOM         X         Y         Z

     1          C      -1.5975    2.5062    0.3713
     2          C      -0.2092    2.5062    0.3713
     3          H      -2.2380    3.3771    0.3713
     4          H       0.4402    3.2737    0.7258
     5          C       0.2855    1.2717   -0.1914
     6          O       1.4063    0.7978   -0.2383
     7          C      -2.0447    1.2645   -0.3828
     8          O      -3.1476    0.8756   -0.6555
     9          C      -0.8115   -0.6012   -1.5311
    10          C      -0.2567   -0.6580   -2.8219
    11          C      -1.3750   -1.7441   -0.9382
    12          C      -0.1385   -1.9319   -3.3995
    13          C      -1.2968   -2.9778   -1.5658
    14          H      -1.8882   -1.6491    0.0192
    15          C      -0.6415   -3.0753   -2.7911
    16          H       0.3649   -2.0398   -4.3616
    17          H      -1.7380   -3.8577   -1.1046
    18          H      -0.5350   -4.0405   -3.2801
    19          C       0.2211    0.5302   -3.6432
    20          C       1.7284    0.7051   -3.4030
    21          H       1.9403    1.0417   -2.3806
    22          H       2.2669   -0.2399   -3.5422
    23          H       2.1577    1.4451   -4.0841
    24          C      -0.0166    0.2619   -5.1492
    25          H      -1.0551   -0.0330   -5.3340
    26          H       0.1857    1.1587   -5.7441
    27          H       0.6385   -0.5234   -5.5373
    28          C      -0.5305    1.8315   -3.3185
    29          H      -1.6028    1.6454   -3.1868
    30          H      -0.1528    2.3158   -2.4125
    31          H      -0.4208    2.5674   -4.1222
    32          N      -0.8522    0.5821   -0.7468
    33          C       2.4299   -2.5740   -0.4336
    34          O       2.3653   -2.5096    0.7751
    35          H       2.7107   -3.4547   -1.0124
    36          O       2.1601   -1.5635   -1.2407
    37          H       1.8381   -0.6830   -0.8162
    38          C      -2.3343   -0.4306    2.4623
    39          C      -1.5964    0.8710    2.5296
    40          C      -0.2061    0.8753    2.7124
    41          C       0.5648   -0.2728    2.5327
    42          C      -0.1022   -1.6066    2.3276
    43          C      -1.4934   -1.6099    2.9617
    44          C      -2.2633    2.0741    2.2952
    45          C      -3.7522    2.1349    2.1781
    46          N       1.9089   -0.2853    2.4810
    47          C       2.7420    0.9269    2.6215
    48          C       3.2414    1.0057    4.0711
    49          C       3.9121    0.8504    1.6363
    50          H      -3.2692   -0.3623    3.0596
    51          H      -2.6820   -0.6105    1.4188
    52          H       0.2764    1.8252    2.9254
    53          H       0.5118   -2.4389    2.7339
    54          H      -0.1593   -1.8163    1.2338
    55          H      -1.3997   -1.5566    4.0651
    56          H      -2.0069   -2.5657    2.7447
    57          H      -1.7980    2.9962    2.6509
    58          H      -4.1007    3.1461    1.9341
    59          H      -4.1372    1.4686    1.3886
    60          H      -4.2437    1.8450    3.1163
    61          H       2.3817   -1.1191    2.1167
    62          H       2.1231    1.8350    2.3776
    63          H       3.8477    1.9037    4.2261
    64          H       2.4053    1.0363    4.7806
    65          H       3.8578    0.1377    4.3315
    66          H       4.5368   -0.0337    1.7961
    67          H       4.5516    1.7353    1.7229
    68          H       3.5472    0.8183    0.5962


    FIRST DERIVATIVES WILL BE USED IN THE CALCULATION OF SECOND DERIVATIVES

          ESTIMATED TIME TO COMPLETE CALCULATION =       62.16 SECONDS

    FOR POINT-GROUP C1   THERE ARE   1 UNIQUE SYMMETRY FUNCTIONS.

 STEP:   1 TIME =     0.25 SECS, INTEGRAL =      0.25 TIME LEFT: 172799.60
 STEP:   2 TIME =     0.24 SECS, INTEGRAL =      0.49 TIME LEFT: 172799.36
 STEP:   3 TIME =     0.20 SECS, INTEGRAL =      0.69 TIME LEFT: 172799.16
 STEP:   4 TIME =     0.23 SECS, INTEGRAL =      0.92 TIME LEFT: 172798.93
 STEP:   5 TIME =     0.28 SECS, INTEGRAL =      1.20 TIME LEFT: 172798.65
 STEP:   6 TIME =     0.21 SECS, INTEGRAL =      1.40 TIME LEFT: 172798.45
 STEP:   7 TIME =     0.20 SECS, INTEGRAL =      1.60 TIME LEFT: 172798.25
 STEP:   8 TIME =     0.19 SECS, INTEGRAL =      1.79 TIME LEFT: 172798.06
 STEP:   9 TIME =     0.21 SECS, INTEGRAL =      2.00 TIME LEFT: 172797.84
 STEP:  10 TIME =     0.19 SECS, INTEGRAL =      2.19 TIME LEFT: 172797.66
 STEP:  11 TIME =     0.20 SECS, INTEGRAL =      2.39 TIME LEFT: 172797.45
 STEP:  12 TIME =     0.19 SECS, INTEGRAL =      2.58 TIME LEFT: 172797.27
 STEP:  13 TIME =     0.23 SECS, INTEGRAL =      2.81 TIME LEFT: 172797.04
 STEP:  14 TIME =     0.25 SECS, INTEGRAL =      3.06 TIME LEFT: 172796.79
 STEP:  15 TIME =     0.23 SECS, INTEGRAL =      3.29 TIME LEFT: 172796.56
 STEP:  16 TIME =     0.21 SECS, INTEGRAL =      3.50 TIME LEFT: 172796.35
 STEP:  17 TIME =     0.19 SECS, INTEGRAL =      3.69 TIME LEFT: 172796.16
 STEP:  18 TIME =     0.21 SECS, INTEGRAL =      3.91 TIME LEFT: 172795.94
 STEP:  19 TIME =     0.20 SECS, INTEGRAL =      4.11 TIME LEFT: 172795.74
 STEP:  20 TIME =     0.19 SECS, INTEGRAL =      4.30 TIME LEFT: 172795.55
 STEP:  21 TIME =     0.20 SECS, INTEGRAL =      4.50 TIME LEFT: 172795.35
 STEP:  22 TIME =     0.19 SECS, INTEGRAL =      4.69 TIME LEFT: 172795.16
 STEP:  23 TIME =     0.21 SECS, INTEGRAL =      4.90 TIME LEFT: 172794.95
 STEP:  24 TIME =     0.20 SECS, INTEGRAL =      5.10 TIME LEFT: 172794.75
 STEP:  25 TIME =     0.19 SECS, INTEGRAL =      5.29 TIME LEFT: 172794.56
 STEP:  26 TIME =     0.22 SECS, INTEGRAL =      5.51 TIME LEFT: 172794.34
 STEP:  27 TIME =     0.22 SECS, INTEGRAL =      5.73 TIME LEFT: 172794.12
 STEP:  28 TIME =     0.21 SECS, INTEGRAL =      5.94 TIME LEFT: 172793.91
 STEP:  29 TIME =     0.21 SECS, INTEGRAL =      6.15 TIME LEFT: 172793.70
 STEP:  30 TIME =     0.24 SECS, INTEGRAL =      6.39 TIME LEFT: 172793.45
 STEP:  31 TIME =     0.20 SECS, INTEGRAL =      6.59 TIME LEFT: 172793.25
 STEP:  32 TIME =     0.23 SECS, INTEGRAL =      6.82 TIME LEFT: 172793.03
 STEP:  33 TIME =     0.20 SECS, INTEGRAL =      7.02 TIME LEFT: 172792.82
 STEP:  34 TIME =     0.20 SECS, INTEGRAL =      7.22 TIME LEFT: 172792.63
 STEP:  35 TIME =     0.23 SECS, INTEGRAL =      7.45 TIME LEFT: 172792.39
 STEP:  36 TIME =     0.21 SECS, INTEGRAL =      7.66 TIME LEFT: 172792.18
 STEP:  37 TIME =     0.20 SECS, INTEGRAL =      7.86 TIME LEFT: 172791.98
 STEP:  38 TIME =     0.20 SECS, INTEGRAL =      8.06 TIME LEFT: 172791.79
 STEP:  39 TIME =     0.24 SECS, INTEGRAL =      8.30 TIME LEFT: 172791.54
 STEP:  40 TIME =     0.20 SECS, INTEGRAL =      8.51 TIME LEFT: 172791.34
 STEP:  41 TIME =     0.17 SECS, INTEGRAL =      8.68 TIME LEFT: 172791.17
 STEP:  42 TIME =     0.16 SECS, INTEGRAL =      8.83 TIME LEFT: 172791.02
 STEP:  43 TIME =     0.20 SECS, INTEGRAL =      9.04 TIME LEFT: 172790.81
 STEP:  44 TIME =     0.23 SECS, INTEGRAL =      9.26 TIME LEFT: 172790.59
 STEP:  45 TIME =     0.25 SECS, INTEGRAL =      9.51 TIME LEFT: 172790.34
 STEP:  46 TIME =     0.20 SECS, INTEGRAL =      9.71 TIME LEFT: 172790.14
 STEP:  47 TIME =     0.19 SECS, INTEGRAL =      9.89 TIME LEFT: 172789.95
 STEP:  48 TIME =     0.18 SECS, INTEGRAL =     10.07 TIME LEFT: 172789.78
 STEP:  49 TIME =     0.20 SECS, INTEGRAL =     10.27 TIME LEFT: 172789.58
 STEP:  50 TIME =     0.19 SECS, INTEGRAL =     10.46 TIME LEFT: 172789.39
 STEP:  51 TIME =     0.18 SECS, INTEGRAL =     10.64 TIME LEFT: 172789.21
 STEP:  52 TIME =     0.18 SECS, INTEGRAL =     10.81 TIME LEFT: 172789.04
 STEP:  53 TIME =     0.20 SECS, INTEGRAL =     11.01 TIME LEFT: 172788.84
 STEP:  54 TIME =     0.18 SECS, INTEGRAL =     11.18 TIME LEFT: 172788.66
 STEP:  55 TIME =     0.15 SECS, INTEGRAL =     11.34 TIME LEFT: 172788.51
 STEP:  56 TIME =     0.20 SECS, INTEGRAL =     11.53 TIME LEFT: 172788.32
 STEP:  57 TIME =     0.16 SECS, INTEGRAL =     11.69 TIME LEFT: 172788.16
 STEP:  58 TIME =     0.17 SECS, INTEGRAL =     11.86 TIME LEFT: 172787.98
 STEP:  59 TIME =     0.19 SECS, INTEGRAL =     12.05 TIME LEFT: 172787.80
 STEP:  60 TIME =     0.21 SECS, INTEGRAL =     12.26 TIME LEFT: 172787.59
 STEP:  61 TIME =     0.15 SECS, INTEGRAL =     12.41 TIME LEFT: 172787.44
 STEP:  62 TIME =     0.16 SECS, INTEGRAL =     12.57 TIME LEFT: 172787.27
 STEP:  63 TIME =     0.20 SECS, INTEGRAL =     12.77 TIME LEFT: 172787.07
 STEP:  64 TIME =     0.19 SECS, INTEGRAL =     12.96 TIME LEFT: 172786.89
 STEP:  65 TIME =     0.18 SECS, INTEGRAL =     13.14 TIME LEFT: 172786.71
 STEP:  66 TIME =     0.20 SECS, INTEGRAL =     13.34 TIME LEFT: 172786.51
 STEP:  67 TIME =     0.16 SECS, INTEGRAL =     13.50 TIME LEFT: 172786.35
 STEP:  68 TIME =     0.19 SECS, INTEGRAL =     13.69 TIME LEFT: 172786.16
 STEP:  69 TIME =     0.18 SECS, INTEGRAL =     13.87 TIME LEFT: 172785.98
 STEP:  70 TIME =     0.18 SECS, INTEGRAL =     14.05 TIME LEFT: 172785.80
 STEP:  71 TIME =     0.19 SECS, INTEGRAL =     14.23 TIME LEFT: 172785.61
 STEP:  72 TIME =     0.18 SECS, INTEGRAL =     14.41 TIME LEFT: 172785.43
 STEP:  73 TIME =     0.19 SECS, INTEGRAL =     14.60 TIME LEFT: 172785.25
 STEP:  74 TIME =     0.17 SECS, INTEGRAL =     14.77 TIME LEFT: 172785.07
 STEP:  75 TIME =     0.16 SECS, INTEGRAL =     14.93 TIME LEFT: 172784.91
 STEP:  76 TIME =     0.18 SECS, INTEGRAL =     15.11 TIME LEFT: 172784.73
 STEP:  77 TIME =     0.17 SECS, INTEGRAL =     15.28 TIME LEFT: 172784.57
 STEP:  78 TIME =     0.17 SECS, INTEGRAL =     15.45 TIME LEFT: 172784.40
 STEP:  79 TIME =     0.18 SECS, INTEGRAL =     15.62 TIME LEFT: 172784.22
 STEP:  80 TIME =     0.17 SECS, INTEGRAL =     15.79 TIME LEFT: 172784.05
 STEP:  81 TIME =     0.18 SECS, INTEGRAL =     15.97 TIME LEFT: 172783.88
 STEP:  82 TIME =     0.18 SECS, INTEGRAL =     16.15 TIME LEFT: 172783.70
 STEP:  83 TIME =     0.18 SECS, INTEGRAL =     16.33 TIME LEFT: 172783.52
 STEP:  84 TIME =     0.18 SECS, INTEGRAL =     16.52 TIME LEFT: 172783.33
 STEP:  85 TIME =     0.18 SECS, INTEGRAL =     16.70 TIME LEFT: 172783.15
 STEP:  86 TIME =     0.16 SECS, INTEGRAL =     16.86 TIME LEFT: 172782.98
 STEP:  87 TIME =     0.16 SECS, INTEGRAL =     17.02 TIME LEFT: 172782.83
 STEP:  88 TIME =     0.19 SECS, INTEGRAL =     17.21 TIME LEFT: 172782.64
 STEP:  89 TIME =     0.17 SECS, INTEGRAL =     17.38 TIME LEFT: 172782.47
 STEP:  90 TIME =     0.19 SECS, INTEGRAL =     17.57 TIME LEFT: 172782.28
 STEP:  91 TIME =     0.18 SECS, INTEGRAL =     17.74 TIME LEFT: 172782.11
 STEP:  92 TIME =     0.18 SECS, INTEGRAL =     17.93 TIME LEFT: 172781.92
 STEP:  93 TIME =     0.17 SECS, INTEGRAL =     18.10 TIME LEFT: 172781.75
 STEP:  94 TIME =     0.21 SECS, INTEGRAL =     18.30 TIME LEFT: 172781.54
 STEP:  95 TIME =     0.23 SECS, INTEGRAL =     18.54 TIME LEFT: 172781.31
 STEP:  96 TIME =     0.18 SECS, INTEGRAL =     18.72 TIME LEFT: 172781.13
 STEP:  97 TIME =     0.18 SECS, INTEGRAL =     18.90 TIME LEFT: 172780.95
 STEP:  98 TIME =     0.18 SECS, INTEGRAL =     19.08 TIME LEFT: 172780.77
 STEP:  99 TIME =     0.18 SECS, INTEGRAL =     19.27 TIME LEFT: 172780.58
 STEP: 100 TIME =     0.18 SECS, INTEGRAL =     19.45 TIME LEFT: 172780.40
 STEP: 101 TIME =     0.17 SECS, INTEGRAL =     19.62 TIME LEFT: 172780.23
 STEP: 102 TIME =     0.18 SECS, INTEGRAL =     19.80 TIME LEFT: 172780.05
 STEP: 103 TIME =     0.16 SECS, INTEGRAL =     19.96 TIME LEFT: 172779.89
 STEP: 104 TIME =     0.18 SECS, INTEGRAL =     20.14 TIME LEFT: 172779.71
 STEP: 105 TIME =     0.16 SECS, INTEGRAL =     20.29 TIME LEFT: 172779.55
 STEP: 106 TIME =     0.20 SECS, INTEGRAL =     20.50 TIME LEFT: 172779.35
 STEP: 107 TIME =     0.19 SECS, INTEGRAL =     20.68 TIME LEFT: 172779.16
 STEP: 108 TIME =     0.20 SECS, INTEGRAL =     20.88 TIME LEFT: 172778.96
 STEP: 109 TIME =     0.19 SECS, INTEGRAL =     21.07 TIME LEFT: 172778.78
 STEP: 110 TIME =     0.18 SECS, INTEGRAL =     21.25 TIME LEFT: 172778.59
 STEP: 111 TIME =     0.18 SECS, INTEGRAL =     21.43 TIME LEFT: 172778.41
 STEP: 112 TIME =     0.15 SECS, INTEGRAL =     21.59 TIME LEFT: 172778.26
 STEP: 113 TIME =     0.18 SECS, INTEGRAL =     21.76 TIME LEFT: 172778.09
 STEP: 114 TIME =     0.16 SECS, INTEGRAL =     21.92 TIME LEFT: 172777.93
 STEP: 115 TIME =     0.20 SECS, INTEGRAL =     22.12 TIME LEFT: 172777.72
 STEP: 116 TIME =     0.20 SECS, INTEGRAL =     22.32 TIME LEFT: 172777.53
 STEP: 117 TIME =     0.20 SECS, INTEGRAL =     22.52 TIME LEFT: 172777.32
 STEP: 118 TIME =     0.21 SECS, INTEGRAL =     22.74 TIME LEFT: 172777.11
 STEP: 119 TIME =     0.19 SECS, INTEGRAL =     22.93 TIME LEFT: 172776.92
 STEP: 120 TIME =     0.20 SECS, INTEGRAL =     23.12 TIME LEFT: 172776.72
 STEP: 121 TIME =     0.21 SECS, INTEGRAL =     23.34 TIME LEFT: 172776.51
 STEP: 122 TIME =     0.20 SECS, INTEGRAL =     23.53 TIME LEFT: 172776.32
 STEP: 123 TIME =     0.19 SECS, INTEGRAL =     23.72 TIME LEFT: 172776.13
 STEP: 124 TIME =     0.18 SECS, INTEGRAL =     23.89 TIME LEFT: 172775.95
 STEP: 125 TIME =     0.19 SECS, INTEGRAL =     24.08 TIME LEFT: 172775.77
 STEP: 126 TIME =     0.17 SECS, INTEGRAL =     24.25 TIME LEFT: 172775.59
 STEP: 127 TIME =     0.15 SECS, INTEGRAL =     24.41 TIME LEFT: 172775.44
 STEP: 128 TIME =     0.20 SECS, INTEGRAL =     24.61 TIME LEFT: 172775.24
 STEP: 129 TIME =     0.20 SECS, INTEGRAL =     24.80 TIME LEFT: 172775.04
 STEP: 130 TIME =     0.21 SECS, INTEGRAL =     25.01 TIME LEFT: 172774.84
 STEP: 131 TIME =     0.23 SECS, INTEGRAL =     25.25 TIME LEFT: 172774.60
 STEP: 132 TIME =     0.22 SECS, INTEGRAL =     25.46 TIME LEFT: 172774.38
 STEP: 133 TIME =     0.23 SECS, INTEGRAL =     25.69 TIME LEFT: 172774.16
 STEP: 134 TIME =     0.21 SECS, INTEGRAL =     25.90 TIME LEFT: 172773.95
 STEP: 135 TIME =     0.18 SECS, INTEGRAL =     26.08 TIME LEFT: 172773.77
 STEP: 136 TIME =     0.23 SECS, INTEGRAL =     26.32 TIME LEFT: 172773.53
 STEP: 137 TIME =     0.21 SECS, INTEGRAL =     26.53 TIME LEFT: 172773.32
 STEP: 138 TIME =     0.21 SECS, INTEGRAL =     26.73 TIME LEFT: 172773.11
 STEP: 139 TIME =     0.21 SECS, INTEGRAL =     26.95 TIME LEFT: 172772.90
 STEP: 140 TIME =     0.20 SECS, INTEGRAL =     27.14 TIME LEFT: 172772.70
 STEP: 141 TIME =     0.18 SECS, INTEGRAL =     27.32 TIME LEFT: 172772.52
 STEP: 142 TIME =     0.19 SECS, INTEGRAL =     27.51 TIME LEFT: 172772.34
 STEP: 143 TIME =     0.21 SECS, INTEGRAL =     27.72 TIME LEFT: 172772.13
 STEP: 144 TIME =     0.21 SECS, INTEGRAL =     27.93 TIME LEFT: 172771.92
 STEP: 145 TIME =     0.19 SECS, INTEGRAL =     28.11 TIME LEFT: 172771.73
 STEP: 146 TIME =     0.19 SECS, INTEGRAL =     28.30 TIME LEFT: 172771.54
 STEP: 147 TIME =     0.18 SECS, INTEGRAL =     28.48 TIME LEFT: 172771.36
 STEP: 148 TIME =     0.20 SECS, INTEGRAL =     28.68 TIME LEFT: 172771.17
 STEP: 149 TIME =     0.20 SECS, INTEGRAL =     28.88 TIME LEFT: 172770.96
 STEP: 150 TIME =     0.18 SECS, INTEGRAL =     29.06 TIME LEFT: 172770.79
 STEP: 151 TIME =     0.20 SECS, INTEGRAL =     29.26 TIME LEFT: 172770.59
 STEP: 152 TIME =     0.20 SECS, INTEGRAL =     29.45 TIME LEFT: 172770.39
 STEP: 153 TIME =     0.19 SECS, INTEGRAL =     29.64 TIME LEFT: 172770.20
 STEP: 154 TIME =     0.22 SECS, INTEGRAL =     29.87 TIME LEFT: 172769.98
 STEP: 155 TIME =     0.20 SECS, INTEGRAL =     30.06 TIME LEFT: 172769.79
 STEP: 156 TIME =     0.17 SECS, INTEGRAL =     30.23 TIME LEFT: 172769.61
 STEP: 157 TIME =     0.16 SECS, INTEGRAL =     30.39 TIME LEFT: 172769.46
 STEP: 158 TIME =     0.18 SECS, INTEGRAL =     30.57 TIME LEFT: 172769.28
 STEP: 159 TIME =     0.19 SECS, INTEGRAL =     30.76 TIME LEFT: 172769.09
 STEP: 160 TIME =     0.19 SECS, INTEGRAL =     30.95 TIME LEFT: 172768.90
 STEP: 161 TIME =     0.20 SECS, INTEGRAL =     31.14 TIME LEFT: 172768.71
 STEP: 162 TIME =     0.19 SECS, INTEGRAL =     31.33 TIME LEFT: 172768.52
 STEP: 163 TIME =     0.20 SECS, INTEGRAL =     31.52 TIME LEFT: 172768.32
 STEP: 164 TIME =     0.18 SECS, INTEGRAL =     31.71 TIME LEFT: 172768.14
 STEP: 165 TIME =     0.19 SECS, INTEGRAL =     31.89 TIME LEFT: 172767.95
 STEP: 166 TIME =     0.19 SECS, INTEGRAL =     32.09 TIME LEFT: 172767.76
 STEP: 167 TIME =     0.17 SECS, INTEGRAL =     32.25 TIME LEFT: 172767.59
 STEP: 168 TIME =     0.21 SECS, INTEGRAL =     32.46 TIME LEFT: 172767.39
 STEP: 169 TIME =     0.19 SECS, INTEGRAL =     32.65 TIME LEFT: 172767.20
 STEP: 170 TIME =     0.20 SECS, INTEGRAL =     32.84 TIME LEFT: 172767.00
 STEP: 171 TIME =     0.22 SECS, INTEGRAL =     33.07 TIME LEFT: 172766.78
 STEP: 172 TIME =     0.20 SECS, INTEGRAL =     33.27 TIME LEFT: 172766.58
 STEP: 173 TIME =     0.20 SECS, INTEGRAL =     33.46 TIME LEFT: 172766.39
 STEP: 174 TIME =     0.18 SECS, INTEGRAL =     33.64 TIME LEFT: 172766.20
 STEP: 175 TIME =     0.19 SECS, INTEGRAL =     33.83 TIME LEFT: 172766.02
 STEP: 176 TIME =     0.21 SECS, INTEGRAL =     34.04 TIME LEFT: 172765.80
 STEP: 177 TIME =     0.16 SECS, INTEGRAL =     34.20 TIME LEFT: 172765.65
 STEP: 178 TIME =     0.19 SECS, INTEGRAL =     34.39 TIME LEFT: 172765.46
 STEP: 179 TIME =     0.18 SECS, INTEGRAL =     34.56 TIME LEFT: 172765.29
 STEP: 180 TIME =     0.18 SECS, INTEGRAL =     34.74 TIME LEFT: 172765.11
 STEP: 181 TIME =     0.20 SECS, INTEGRAL =     34.94 TIME LEFT: 172764.91
 STEP: 182 TIME =     0.19 SECS, INTEGRAL =     35.13 TIME LEFT: 172764.72
 STEP: 183 TIME =     0.20 SECS, INTEGRAL =     35.33 TIME LEFT: 172764.52
 STEP: 184 TIME =     0.18 SECS, INTEGRAL =     35.50 TIME LEFT: 172764.34
 STEP: 185 TIME =     0.20 SECS, INTEGRAL =     35.70 TIME LEFT: 172764.14
 STEP: 186 TIME =     0.17 SECS, INTEGRAL =     35.88 TIME LEFT: 172763.97
 STEP: 187 TIME =     0.20 SECS, INTEGRAL =     36.07 TIME LEFT: 172763.78
 STEP: 188 TIME =     0.19 SECS, INTEGRAL =     36.26 TIME LEFT: 172763.59
 STEP: 189 TIME =     0.17 SECS, INTEGRAL =     36.43 TIME LEFT: 172763.42
 STEP: 190 TIME =     0.18 SECS, INTEGRAL =     36.61 TIME LEFT: 172763.24
 STEP: 191 TIME =     0.18 SECS, INTEGRAL =     36.79 TIME LEFT: 172763.06
 STEP: 192 TIME =     0.18 SECS, INTEGRAL =     36.97 TIME LEFT: 172762.88
 STEP: 193 TIME =     0.18 SECS, INTEGRAL =     37.15 TIME LEFT: 172762.70
 STEP: 194 TIME =     0.18 SECS, INTEGRAL =     37.33 TIME LEFT: 172762.52
 STEP: 195 TIME =     0.16 SECS, INTEGRAL =     37.49 TIME LEFT: 172762.36
 STEP: 196 TIME =     0.20 SECS, INTEGRAL =     37.69 TIME LEFT: 172762.16
 STEP: 197 TIME =     0.16 SECS, INTEGRAL =     37.86 TIME LEFT: 172761.99
 STEP: 198 TIME =     0.17 SECS, INTEGRAL =     38.02 TIME LEFT: 172761.82
 STEP: 199 TIME =     0.19 SECS, INTEGRAL =     38.21 TIME LEFT: 172761.63
 STEP: 200 TIME =     0.17 SECS, INTEGRAL =     38.39 TIME LEFT: 172761.46
 STEP: 201 TIME =     0.20 SECS, INTEGRAL =     38.59 TIME LEFT: 172761.26
 STEP: 202 TIME =     0.20 SECS, INTEGRAL =     38.79 TIME LEFT: 172761.06
 STEP: 203 TIME =     0.17 SECS, INTEGRAL =     38.96 TIME LEFT: 172760.89
 STEP: 204 TIME =     0.16 SECS, INTEGRAL =     39.12 TIME LEFT: 172760.73

(To convert to Hartree/Bohr^2, multiply by (10^(-21) x N x a0^2)/(4.184 x 627.51) =  0.0642)


           FORCE MATRIX IN MILLIDYNES/ANGSTROM


                  C  1       C  2       H  3       H  4       C  5       O  6
 ------------------------------------------------------------------------------
     C    1  13.139457
     C    2   6.500889  14.408397
     H    3   3.493225   0.711814   4.305403
     H    4   0.739397   3.614131   0.024965   4.486083
     C    5   2.493412   3.964852   0.177857   0.654538  18.074285
     O    6   0.565539   1.595943   0.065206   0.038986  10.565441  14.136393
     C    7   2.660280   1.219972   0.574254   0.092631   1.912442   0.241311
     O    8   1.005959   0.221881   0.036091   0.014334   0.385417   0.089335
     C    9   0.155359   0.129160   0.016466   0.013967   0.751147   0.112586
     C   10   0.027911   0.023019   0.004077   0.001673   0.088884   0.029756
     C   11   0.034213   0.033166   0.003368   0.003101   0.094037   0.030085
     C   12   0.010127   0.008918   0.001795   0.001392   0.047993   0.021418
     C   13   0.017071   0.015411   0.002024   0.001119   0.026907   0.009808
     H   14   0.036997   0.033013   0.003459   0.001964   0.041602   0.014467
     C   15   0.013321   0.014974   0.001945   0.000747   0.038866   0.012165
     H   16   0.002502   0.003448   0.000625   0.000616   0.013138   0.008235
     H   17   0.011438   0.010678   0.001056   0.000500   0.013571   0.004258
     H   18   0.007476   0.008557   0.001072   0.000752   0.016800   0.006133
     C   19   0.032614   0.034033   0.003723   0.004227   0.083109   0.041102
     C   20   0.049384   0.057975   0.005273   0.006141   0.124310   0.113521
     H   21   0.029442   0.037392   0.003133   0.003283   0.125114   0.065342
     H   22   0.010115   0.011957   0.001323   0.000969   0.026746   0.021943
     H   23   0.009855   0.011288   0.000960   0.001473   0.016897   0.010185
     C   24   0.024654   0.026231   0.003142   0.002709   0.047168   0.024023
     H   25   0.004129   0.004965   0.000575   0.000675   0.010615   0.004857
     H   26   0.004514   0.004920   0.000668   0.000557   0.007444   0.004290
     H   27   0.003789   0.003683   0.000710   0.000482   0.008377   0.005135
     C   28   0.064824   0.072276   0.006367   0.008088   0.087624   0.041080
     H   29   0.018903   0.017939   0.002431   0.001854   0.030996   0.010761
     H   30   0.041409   0.036582   0.003574   0.005778   0.103454   0.019650
     H   31   0.009820   0.011001   0.001152   0.001809   0.012722   0.005786
     N   32   1.208910   1.532387   0.068221   0.055056   3.359175   1.618377
     C   33   0.216375   0.221793   0.022983   0.006037   0.319901   0.387450
     O   34   0.135563   0.126430   0.014649   0.005727   0.163118   0.171736
     H   35   0.016576   0.018202   0.001879   0.000599   0.032012   0.042420
     O   36   0.184709   0.212339   0.019217   0.005922   0.392247   3.327406
     H   37   0.206890   0.270309   0.022088   0.009345   0.684946   0.598809
     C   38   0.105491   0.074737   0.014635   0.005987   0.089580   0.018757
     C   39   1.897016   1.280023   0.198643   0.091396   1.111249   0.510946
     C   40   1.269969   1.009884   0.145926   0.072323   0.958509   0.510300
     C   41   1.001058   0.830046   0.111669   0.064422   0.876681   0.522876
     C   42   0.088717   0.078115   0.009720   0.005240   0.097151   0.054665


                  C  1       C  2       H  3       H  4       C  5       O  6
 ------------------------------------------------------------------------------
     C   43   0.034668   0.028218   0.003014   0.002115   0.027738   0.010785
     C   44   2.261490   1.717935   0.593150   0.110839   1.310178   0.509293
     C   45   0.301636   0.069133   0.022795   0.006826   0.068183   0.018877
     N   46   0.537068   0.443717   0.057779   0.038862   0.477342   0.302582
     C   47   0.124473   0.099413   0.013508   0.014845   0.106732   0.069791
     C   48   0.073978   0.060401   0.008329   0.009577   0.066088   0.041785
     C   49   0.077610   0.073233   0.008540   0.011083   0.109257   0.108691
     H   50   0.025286   0.017817   0.003439   0.001564   0.017601   0.004380
     H   51   0.052840   0.039659   0.005863   0.002005   0.052415   0.010475
     H   52   0.099635   0.077974   0.012424   0.021695   0.057546   0.022068
     H   53   0.025814   0.021465   0.002753   0.001473   0.023405   0.016418
     H   54   0.049757   0.044915   0.005162   0.002173   0.062020   0.030888
     H   55   0.017070   0.013153   0.001899   0.001338   0.011722   0.005109
     H   56   0.010797   0.008926   0.001066   0.000769   0.010179   0.003938
     H   57   0.464974   0.129512   0.029794   0.014239   0.119387   0.050111
     H   58   0.021689   0.015296   0.019595   0.001990   0.013193   0.006571
     H   59   0.036762   0.027513   0.010640   0.001563   0.031459   0.007623
     H   60   0.033609   0.013562   0.002982   0.001485   0.013175   0.005614
     H   61   0.084653   0.071863   0.008889   0.005952   0.093293   0.083435
     H   62   0.040667   0.042128   0.004388   0.010779   0.036415   0.023113
     H   63   0.010071   0.008192   0.001313   0.002327   0.010013   0.006797
     H   64   0.019153   0.015598   0.002155   0.002209   0.015787   0.009280
     H   65   0.015328   0.012073   0.001821   0.001361   0.012085   0.007146
     H   66   0.007786   0.006760   0.001137   0.001241   0.015194   0.014040
     H   67   0.013724   0.013776   0.001609   0.003193   0.021243   0.015440
     H   68   0.043975   0.045323   0.004497   0.004643   0.082105   0.045748


                  C  7       O  8       C  9       C 10       C 11       C 12
 ------------------------------------------------------------------------------
     C    7  18.319434
     O    8  12.113628  14.119934
     C    9   0.805427   0.093737  15.844552
     C   10   0.090925   0.025093   5.403963  15.032020
     C   11   0.080459   0.027736   5.393434   2.241126  15.233254
     C   12   0.042717   0.013533   2.321929   5.552843   1.724100  15.054674
     C   13   0.027091   0.012020   2.321731   1.683018   6.372357   2.439103
     H   14   0.058037   0.025715   0.757253   0.084845   3.406080   0.023879
     C   15   0.036690   0.013188   1.699528   2.286124   2.429982   6.187507
     H   16   0.007973   0.003531   0.095243   0.737680   0.027361   3.416544
     H   17   0.011039   0.005385   0.097295   0.012015   0.760888   0.089245
     H   18   0.012319   0.004226   0.012390   0.093604   0.090166   0.761488
     C   19   0.049792   0.018467   0.601545   3.023544   0.083401   0.749048
     C   20   0.038177   0.015952   0.039196   0.687666   0.015001   0.045924
     H   21   0.017122   0.008536   0.013507   0.022566   0.003603   0.005479
     H   22   0.009012   0.003624   0.007085   0.043328   0.002310   0.007567
     H   23   0.003906   0.001573   0.005844   0.044884   0.002801   0.002880
     C   24   0.030641   0.012950   0.046218   0.644350   0.016303   0.125030
     H   25   0.010260   0.005780   0.007186   0.030010   0.002900   0.012094
     H   26   0.004766   0.002191   0.006605   0.046605   0.002010   0.003706
     H   27   0.006099   0.002491   0.006225   0.014955   0.002712   0.060579
     C   28   0.072939   0.035088   0.027231   0.592785   0.006408   0.040087
     H   29   0.048117   0.021537   0.025112   0.028220   0.002517   0.006626
     H   30   0.039787   0.011359   0.022474   0.009934   0.003718   0.004863
     H   31   0.009864   0.004581   0.002418   0.043722   0.001659   0.005842
     N   32   3.791938   1.845608   4.937932   0.938565   1.182941   0.129214
     C   33   0.079062   0.021589   0.034122   0.013491   0.023292   0.017674
     O   34   0.045875   0.014031   0.029702   0.009239   0.017177   0.010864
     H   35   0.005433   0.002220   0.002622   0.002147   0.002023   0.001203
     O   36   0.074467   0.027074   0.035527   0.020845   0.017775   0.014109
     H   37   0.074714   0.033224   0.066617   0.020470   0.015989   0.013292
     C   38   0.084038   0.057046   0.015525   0.002564   0.026481   0.001862
     C   39   0.325233   0.149315   0.084272   0.024846   0.032855   0.006389
     C   40   0.260650   0.099777   0.077327   0.023974   0.025349   0.006553
     C   41   0.221825   0.092679   0.078948   0.024217   0.028044   0.007847
     C   42   0.043351   0.012435   0.021471   0.005183   0.054132   0.003447
     C   43   0.013349   0.008229   0.008252   0.001515   0.006529   0.000539
     C   44   0.400395   0.169403   0.089098   0.024937   0.032221   0.006035
     C   45   0.103864   0.089213   0.009546   0.003011   0.003568   0.001946
     N   46   0.117377   0.054445   0.046918   0.014488   0.011839   0.005224
     C   47   0.032069   0.016284   0.011125   0.003565   0.004210   0.002600
     C   48   0.018257   0.009226   0.007833   0.002454   0.002599   0.001750
     C   49   0.022526   0.011495   0.009465   0.002538   0.002966   0.002091
     H   50   0.020590   0.012068   0.002945   0.000881   0.002641   0.000682
     H   51   0.091817   0.044026   0.012156   0.001965   0.023108   0.001346
     H   52   0.017628   0.006860   0.004514   0.001407   0.001986   0.001066


                  C  7       O  8       C  9       C 10       C 11       C 12
 ------------------------------------------------------------------------------
     H   53   0.007578   0.003042   0.004912   0.001276   0.004353   0.000795
     H   54   0.030162   0.008562   0.022208   0.004660   0.032834   0.002842
     H   55   0.004989   0.002953   0.002488   0.000864   0.001588   0.000510
     H   56   0.005870   0.004148   0.004197   0.000785   0.004129   0.000774
     H   57   0.029891   0.017161   0.009554   0.002997   0.002485   0.000964
     H   58   0.026033   0.013603   0.003351   0.001079   0.000919   0.000721
     H   59   0.112095   0.056921   0.005646   0.001677   0.002315   0.000924
     H   60   0.012303   0.008153   0.002179   0.000872   0.001026   0.000479
     H   61   0.030291   0.012863   0.017123   0.004803   0.006038   0.002070
     H   62   0.005808   0.001853   0.002474   0.000885   0.000789   0.000516
     H   63   0.003592   0.002015   0.001503   0.000379   0.000563   0.000442
     H   64   0.004785   0.002402   0.001794   0.000573   0.000606   0.000316
     H   65   0.004207   0.002351   0.002182   0.000692   0.000571   0.000336
     H   66   0.004298   0.002318   0.002550   0.000718   0.000630   0.000487
     H   67   0.003855   0.002225   0.001691   0.000463   0.000487   0.000605
     H   68   0.013271   0.005040   0.004542   0.001486   0.001726   0.000939


                  C 13       H 14       C 15       H 16       H 17       H 18
 ------------------------------------------------------------------------------
     C   13  15.451052
     H   14   0.761038   4.324629
     C   15   6.095344   0.096255  15.355656
     H   16   0.094725   0.010899   0.786330   4.355381
     H   17   3.480522   0.034912   0.746653   0.008167   4.397238
     H   18   0.751608   0.007917   3.478964   0.036554   0.030805   4.398947
     C   19   0.016728   0.008367   0.086433   0.053419   0.012900   0.008611
     C   20   0.009894   0.004221   0.012179   0.014695   0.005016   0.003260
     H   21   0.002634   0.002020   0.001678   0.002997   0.001361   0.001203
     H   22   0.002449   0.001435   0.002156   0.009023   0.001513   0.001662
     H   23   0.000856   0.000687   0.002394   0.003276   0.000483   0.000384
     C   24   0.011330   0.004448   0.005683   0.092711   0.004030   0.005188
     H   25   0.002176   0.001546   0.001634   0.018495   0.001592   0.001888
     H   26   0.001321   0.000300   0.002094   0.002799   0.000433   0.000596
     H   27   0.002189   0.001648   0.001626   0.040621   0.001295   0.002002
     C   28   0.006443   0.004461   0.013035   0.010296   0.003443   0.003149
     H   29   0.002336   0.001651   0.002185   0.002487   0.001263   0.001206
     H   30   0.001632   0.001859   0.001555   0.001690   0.000976   0.001039
     H   31   0.000594   0.000698   0.001778   0.001897   0.000479   0.000447
     N   32   0.118580   0.067783   0.029328   0.018254   0.016258   0.021476
     C   33   0.013833   0.016462   0.016184   0.013879   0.015180   0.011463
     O   34   0.007768   0.011489   0.009111   0.008343   0.007850   0.006280
     H   35   0.000939   0.000987   0.002916   0.001435   0.000993   0.002475
     O   36   0.013954   0.010242   0.017975   0.010112   0.010913   0.011126
     H   37   0.011560   0.008289   0.013521   0.007877   0.005013   0.007603
     C   38   0.003391   0.017695   0.002787   0.002150   0.002909   0.001456
     C   39   0.011868   0.036465   0.015126   0.002504   0.009660   0.006393
     C   40   0.009995   0.019224   0.013650   0.003182   0.008020   0.006276
     C   41   0.010212   0.019247   0.013422   0.004664   0.007182   0.006987
     C   42   0.005243   0.011477   0.005481   0.002950   0.005060   0.002376
     C   43   0.002135   0.005072   0.002113   0.001074   0.003177   0.000813
     C   44   0.013580   0.038269   0.015760   0.001842   0.010565   0.006845
     C   45   0.001699   0.004202   0.001914   0.001593   0.001507   0.001764
     N   46   0.006083   0.007548   0.007838   0.003748   0.003947   0.004865
     C   47   0.001770   0.002103   0.002303   0.002359   0.001220   0.002153
     C   48   0.001008   0.001829   0.001698   0.001430   0.001024   0.001391
     C   49   0.001927   0.001982   0.002387   0.001867   0.001574   0.002066
     H   50   0.000897   0.003452   0.000806   0.000744   0.000948   0.000610
     H   51   0.002579   0.029079   0.002063   0.001194   0.002173   0.000907
     H   52   0.000755   0.001112   0.000782   0.000811   0.000344   0.000686
     H   53   0.002226   0.003651   0.001467   0.000787   0.002080   0.001042
     H   54   0.006023   0.029957   0.005439   0.002012   0.004503   0.001314
     H   55   0.000637   0.001273   0.000961   0.000594   0.000716   0.000491
     H   56   0.001863   0.007964   0.001115   0.000593   0.002741   0.000541
     H   57   0.001769   0.003064   0.001759   0.000658   0.001056   0.000961
     H   58   0.000650   0.000505   0.000599   0.000535   0.000462   0.000557


                  C 13       H 14       C 15       H 16       H 17       H 18
 ------------------------------------------------------------------------------
     H   59   0.000905   0.002726   0.000981   0.000753   0.000636   0.000759
     H   60   0.000773   0.001362   0.000640   0.000368   0.000471   0.000436
     H   61   0.002754   0.003936   0.003158   0.001929   0.001807   0.002202
     H   62   0.000566   0.000396   0.000595   0.000275   0.000331   0.000320
     H   63   0.000258   0.000415   0.000343   0.000304   0.000208   0.000293
     H   64   0.000353   0.000517   0.000417   0.000270   0.000244   0.000251
     H   65   0.000349   0.000426   0.000503   0.000322   0.000316   0.000379
     H   66   0.000524   0.000370   0.000633   0.000434   0.000420   0.000470
     H   67   0.000348   0.000291   0.000514   0.000369   0.000345   0.000423
     H   68   0.000931   0.001009   0.000816   0.000682   0.000805   0.000841


                  C 19       C 20       H 21       H 22       H 23       C 24
 ------------------------------------------------------------------------------
     C   19  12.799460
     C   20   2.829111  11.208483
     H   21   0.668560   3.394334   4.210744
     H   22   0.673320   3.427707   0.463203   4.215449
     H   23   0.687874   3.447145   0.465853   0.464644   4.239627
     C   24   2.613464   0.714109   0.045698   0.010391   0.016238  11.206734
     H   25   0.666413   0.046391   0.008037   0.002294   0.002828   3.440530
     H   26   0.668762   0.011119   0.003024   0.005227   0.017063   3.433546
     H   27   0.649606   0.015516   0.003389   0.016984   0.010780   3.423728
     C   28   2.837281   0.685983   0.014516   0.045633   0.011358   0.773563
     H   29   0.678750   0.043973   0.003338   0.007765   0.002139   0.012676
     H   30   0.663550   0.019395   0.024107   0.003277   0.009172   0.041909
     H   31   0.680685   0.012250   0.005612   0.001725   0.010713   0.054938
     N   32   0.074517   0.060128   0.033905   0.011386   0.007236   0.035178
     C   33   0.023747   0.069345   0.032475   0.036084   0.006416   0.020218
     O   34   0.013783   0.039655   0.017219   0.020177   0.003403   0.011169
     H   35   0.001902   0.005833   0.002377   0.002456   0.000500   0.002144
     O   36   0.021017   0.069304   0.025908   0.027002   0.006180   0.018140
     H   37   0.016306   0.041459   0.030547   0.021903   0.004978   0.012280
     C   38   0.003468   0.003748   0.002035   0.000830   0.000728   0.003290
     C   39   0.024801   0.035838   0.019764   0.008615   0.006806   0.018958
     C   40   0.020353   0.030031   0.015876   0.008493   0.005418   0.015933
     C   41   0.018636   0.028424   0.015485   0.009173   0.004779   0.015268
     C   42   0.005267   0.006244   0.002983   0.002010   0.000916   0.004742
     C   43   0.001933   0.002600   0.001222   0.000616   0.000494   0.001957
     C   44   0.027817   0.041325   0.024569   0.009035   0.007973   0.021096
     C   45   0.002714   0.003125   0.001751   0.000692   0.000938   0.002316
     N   46   0.010794   0.017964   0.009582   0.006388   0.003008   0.009740
     C   47   0.004481   0.007130   0.003571   0.001702   0.001574   0.004130
     C   48   0.002379   0.004237   0.002661   0.001133   0.000967   0.002528
     C   49   0.004247   0.011108   0.006103   0.003664   0.002460   0.003687
     H   50   0.001042   0.001632   0.000742   0.000375   0.000363   0.001123
     H   51   0.001956   0.002235   0.001009   0.000577   0.000358   0.002347
     H   52   0.001719   0.001954   0.000967   0.000466   0.000480   0.001518
     H   53   0.001605   0.002373   0.000960   0.000810   0.000478   0.001442
     H   54   0.003250   0.004401   0.001974   0.001452   0.000460   0.003957
     H   55   0.000855   0.001194   0.000468   0.000302   0.000329   0.000973
     H   56   0.001561   0.001313   0.000614   0.000338   0.000282   0.001046
     H   57   0.002551   0.004043   0.002366   0.000980   0.000772   0.002229
     H   58   0.001114   0.001326   0.000620   0.000299   0.000331   0.001012
     H   59   0.001341   0.001514   0.000707   0.000349   0.000383   0.001273
     H   60   0.000771   0.001030   0.000451   0.000267   0.000262   0.000658
     H   61   0.004054   0.009481   0.004227   0.004158   0.000974   0.003251
     H   62   0.000831   0.001375   0.000659   0.000451   0.000247   0.000541
     H   63   0.000654   0.001116   0.000560   0.000260   0.000248   0.000691
     H   64   0.000623   0.000994   0.000566   0.000285   0.000240   0.000556


                  C 19       C 20       H 21       H 22       H 23       C 24
 ------------------------------------------------------------------------------
     H   65   0.000634   0.001075   0.000604   0.000283   0.000261   0.000585
     H   66   0.000973   0.002536   0.001247   0.000912   0.000417   0.000821
     H   67   0.000965   0.002666   0.001579   0.000680   0.000606   0.000881
     H   68   0.002217   0.006728   0.003884   0.002325   0.001482   0.002297


                  H 25       H 26       H 27       C 28       H 29       H 30
 ------------------------------------------------------------------------------
     H   25   4.224069
     H   26   0.465327   4.220629
     H   27   0.465835   0.470172   4.205015
     C   28   0.012406   0.040304   0.045257  11.275383
     H   29   0.011968   0.006480   0.001469   3.431364   4.211979
     H   30   0.002193   0.003760   0.007585   3.416445   0.463251   4.224625
     H   31   0.009631   0.035778   0.003680   3.428619   0.465670   0.470389
     N   32   0.010299   0.005975   0.007686   0.183256   0.022335   0.057372
     C   33   0.004005   0.004178   0.006519   0.020525   0.003808   0.007491
     O   34   0.002338   0.002413   0.003750   0.011693   0.002296   0.004976
     H   35   0.000430   0.000379   0.000744   0.001587   0.000379   0.000729
     O   36   0.003169   0.003435   0.005766   0.018095   0.003719   0.007403
     H   37   0.001985   0.001872   0.003865   0.015480   0.004157   0.008835
     C   38   0.000924   0.000749   0.000661   0.004366   0.001308   0.002544
     C   39   0.002922   0.003305   0.003235   0.049351   0.015371   0.026867
     C   40   0.002665   0.002758   0.003097   0.039549   0.012583   0.021223
     C   41   0.002814   0.002358   0.003412   0.035449   0.011098   0.018995
     C   42   0.001069   0.001025   0.001117   0.005136   0.001340   0.002670
     C   43   0.000543   0.000435   0.000430   0.002777   0.000717   0.001216
     C   44   0.003428   0.003677   0.003277   0.058249   0.017356   0.032882
     C   45   0.000748   0.000816   0.000580   0.003972   0.001651   0.002207
     N   46   0.001973   0.001685   0.002392   0.020312   0.006260   0.010937
     C   47   0.000844   0.000941   0.000797   0.006416   0.001921   0.002806
     C   48   0.000587   0.000602   0.000613   0.003774   0.001005   0.002073
     C   49   0.000946   0.001021   0.000861   0.004771   0.001364   0.002425
     H   50   0.000355   0.000327   0.000196   0.001573   0.000418   0.000694
     H   51   0.000644   0.000472   0.000523   0.002954   0.000941   0.001355
     H   52   0.000312   0.000390   0.000287   0.002356   0.000743   0.000948
     H   53   0.000376   0.000262   0.000388   0.001927   0.000543   0.000855
     H   54   0.001013   0.000831   0.000956   0.003816   0.000957   0.001684
     H   55   0.000284   0.000259   0.000206   0.001423   0.000366   0.000533
     H   56   0.000227   0.000227   0.000198   0.001491   0.000453   0.000610
     H   57   0.000387   0.000497   0.000406   0.005784   0.001707   0.002977
     H   58   0.000266   0.000318   0.000181   0.001819   0.000685   0.000807
     H   59   0.000499   0.000304   0.000307   0.002397   0.000974   0.001064
     H   60   0.000132   0.000212   0.000201   0.001141   0.000279   0.000537
     H   61   0.000610   0.000750   0.000987   0.005130   0.001447   0.002836
     H   62   0.000125   0.000169   0.000206   0.000940   0.000308   0.000403
     H   63   0.000181   0.000154   0.000152   0.000919   0.000213   0.000400
     H   64   0.000129   0.000156   0.000142   0.000864   0.000245   0.000433
     H   65   0.000153   0.000147   0.000181   0.001037   0.000272   0.000514
     H   66   0.000236   0.000256   0.000241   0.001190   0.000328   0.000523
     H   67   0.000242   0.000254   0.000240   0.001271   0.000306   0.000623
     H   68   0.000507   0.000574   0.000510   0.002726   0.000702   0.001147


                  H 31       N 32       C 33       O 34       H 35       O 36
 ------------------------------------------------------------------------------
     H   31   4.225196
     N   32   0.009051  15.304092
     C   33   0.003341   0.079803  17.864410
     O   34   0.001668   0.052595  11.779500  13.680021
     H   35   0.000427   0.007835   3.243413   0.784521   4.064989
     O   36   0.003220   0.096495   6.125847   1.930108   0.792569  11.614245
     H   37   0.001838   0.140938   1.328195   0.309038   0.141509   2.914567
     C   38   0.000687   0.072864   0.010688   0.010577   0.001256   0.007168
     C   39   0.006470   0.232180   0.226449   0.160607   0.017705   0.173075
     C   40   0.005113   0.179794   0.246387   0.190873   0.020351   0.176322
     C   41   0.004668   0.157321   0.275317   0.223600   0.023787   0.193164
     C   42   0.000892   0.053455   0.069586   0.068415   0.006225   0.048672
     C   43   0.000540   0.014968   0.006552   0.007719   0.001016   0.006025
     C   44   0.008251   0.338868   0.211122   0.137762   0.016048   0.173225
     C   45   0.000898   0.053304   0.005811   0.007530   0.001172   0.005717
     N   46   0.002998   0.090626   0.192849   0.240054   0.017925   0.133034
     C   47   0.001557   0.029079   0.028791   0.033822   0.003740   0.017504
     C   48   0.001018   0.020394   0.014809   0.016544   0.001850   0.012181
     C   49   0.001344   0.034843   0.046271   0.039420   0.004504   0.037798
     H   50   0.000358   0.012736   0.001254   0.001573   0.000547   0.001437
     H   51   0.000383   0.045832   0.007461   0.005757   0.000510   0.005180
     H   52   0.000424   0.011413   0.003078   0.004013   0.000511   0.003807
     H   53   0.000471   0.008987   0.042226   0.032886   0.003515   0.026600
     H   54   0.000428   0.038380   0.050443   0.035581   0.004512   0.030766
     H   55   0.000373   0.004821   0.002286   0.002849   0.000330   0.002222
     H   56   0.000323   0.007422   0.004639   0.005062   0.000557   0.003286
     H   57   0.000877   0.033494   0.018430   0.011797   0.001373   0.015600
     H   58   0.000349   0.012277   0.001436   0.001529   0.000330   0.002167
     H   59   0.000343   0.038515   0.002279   0.001928   0.000385   0.002463
     H   60   0.000339   0.005893   0.001631   0.001070   0.000310   0.002131
     H   61   0.000830   0.034893   0.226091   0.143544   0.027856   0.125832
     H   62   0.000224   0.009681   0.006893   0.006341   0.000939   0.005845
     H   63   0.000246   0.004391   0.002570   0.002632   0.000469   0.002151
     H   64   0.000216   0.004446   0.002620   0.003532   0.000467   0.002257
     H   65   0.000271   0.004356   0.007909   0.006949   0.000566   0.005583
     H   66   0.000295   0.007167   0.020458   0.016652   0.001931   0.013979
     H   67   0.000333   0.007084   0.005851   0.004389   0.000435   0.004932
     H   68   0.000749   0.022799   0.030020   0.019911   0.002555   0.024326


                  H 37       C 38       C 39       C 40       C 41       C 42
 ------------------------------------------------------------------------------
     H   37   3.390626
     C   38   0.008831  11.983646
     C   39   0.173250   3.570766  15.859538
     C   40   0.162445   0.772379   5.551856  14.909181
     C   41   0.176066   0.071533   2.345120   5.705828  16.916346
     C   42   0.038402   0.672245   0.107531   0.785462   3.300361  11.957989
     C   43   0.007338   2.962261   0.642428   0.081717   0.687026   3.012086
     C   44   0.188401   0.787323   6.159432   2.054585   1.077145   0.090668
     C   45   0.008329   0.075112   0.736186   0.119106   0.090979   0.008347
     N   46   0.119516   0.033673   0.773644   2.045402   7.076984   1.065047
     C   47   0.019075   0.011076   0.182552   0.215996   0.949456   0.108794
     C   48   0.013882   0.006415   0.103599   0.134501   0.179724   0.021165
     C   49   0.033725   0.006163   0.092793   0.111525   0.162832   0.021092
     H   50   0.001992   3.257582   0.752285   0.038455   0.012672   0.045537
     H   51   0.004529   3.180731   0.751219   0.029246   0.018176   0.007933
     H   52   0.005876   0.061396   0.813184   3.417034   0.784391   0.064346
     H   53   0.015888   0.045388   0.033538   0.055760   0.745130   3.271274
     H   54   0.023903   0.008016   0.060668   0.065291   0.769332   3.174232
     H   55   0.002737   0.692248   0.034879   0.018892   0.036489   0.696546
     H   56   0.002908   0.669704   0.052970   0.008842   0.050019   0.679309
     H   57   0.017618   0.069188   0.807701   0.132672   0.085046   0.008278
     H   58   0.002933   0.003996   0.057609   0.010203   0.013222   0.001177
     H   59   0.002961   0.014918   0.033113   0.019939   0.017467   0.002899
     H   60   0.002577   0.008069   0.021722   0.014044   0.008368   0.002384
     H   61   0.083773   0.008361   0.125788   0.191052   1.017817   0.076525
     H   62   0.006728   0.002824   0.041157   0.075709   0.113839   0.010435
     H   63   0.002230   0.000932   0.013576   0.017885   0.023487   0.003989
     H   64   0.003026   0.002528   0.027184   0.039139   0.052880   0.004878
     H   65   0.004235   0.001392   0.022616   0.029506   0.042418   0.004533
     H   66   0.011207   0.001278   0.013901   0.019241   0.031227   0.003517
     H   67   0.004464   0.001317   0.013855   0.017088   0.024571   0.003094
     H   68   0.022599   0.002085   0.044332   0.048721   0.060597   0.005579


                  C 43       C 44       C 45       N 46       C 47       C 48
 ------------------------------------------------------------------------------
     C   43  11.949333
     C   44   0.070112  13.605012
     C   45   0.007575   3.781556  11.617560
     N   46   0.062176   0.579148   0.051385  15.316724
     C   47   0.015316   0.135210   0.014567   3.608547  12.621488
     C   48   0.006727   0.078856   0.008340   0.953446   2.820802  11.282881
     C   49   0.004653   0.077332   0.007297   0.947009   2.930269   0.696563
     H   50   0.674999   0.046167   0.019957   0.007727   0.002118   0.002113
     H   51   0.666008   0.065827   0.010554   0.007940   0.002924   0.001594
     H   52   0.005261   0.126571   0.007801   0.050248   0.072550   0.016399
     H   53   0.660742   0.028384   0.002516   0.065877   0.009871   0.005530
     H   54   0.659177   0.051882   0.003126   0.046737   0.014674   0.005365
     H   55   3.314849   0.020257   0.003666   0.010220   0.003789   0.003930
     H   56   3.326289   0.013948   0.002956   0.009481   0.003188   0.001016
     H   57   0.007420   3.400665   0.673567   0.048257   0.012318   0.007524
     H   58   0.001193   0.706974   3.424281   0.007980   0.002615   0.001590
     H   59   0.002829   0.704625   3.349169   0.010178   0.003108   0.001958
     H   60   0.001792   0.705789   3.382718   0.005345   0.001632   0.001181
     H   61   0.008687   0.091221   0.009135   3.361989   0.667124   0.030343
     H   62   0.001825   0.039892   0.002355   0.806337   3.081706   0.654160
     H   63   0.000800   0.010864   0.001528   0.050961   0.674187   3.441103
     H   64   0.002063   0.020693   0.002456   0.037187   0.680298   3.430797
     H   65   0.001726   0.016428   0.001886   0.019457   0.693710   3.442315
     H   66   0.001360   0.008983   0.001452   0.012029   0.686806   0.011950
     H   67   0.000758   0.012650   0.001464   0.058421   0.677111   0.014897
     H   68   0.001694   0.041560   0.001966   0.038176   0.688592   0.048476


                  C 49       H 50       H 51       H 52       H 53       H 54
 ------------------------------------------------------------------------------
     C   49  11.331664
     H   50   0.001967   4.216893
     H   51   0.002066   0.450905   4.122089
     H   52   0.010016   0.007691   0.007406   4.408697
     H   53   0.005662   0.007509   0.002298   0.008248   4.207118
     H   54   0.004029   0.002101   0.011551   0.008003   0.444377   4.147258
     H   55   0.002431   0.025033   0.044637   0.002303   0.021606   0.046104
     H   56   0.001495   0.018302   0.023127   0.001184   0.020644   0.020738
     H   57   0.007305   0.005424   0.009170   0.029391   0.002326   0.004445
     H   58   0.001555   0.002021   0.001833   0.001296   0.000648   0.000646
     H   59   0.001726   0.019111   0.014981   0.001417   0.000600   0.001423
     H   60   0.001219   0.016952   0.004485   0.001391   0.000460   0.000660
     H   61   0.045174   0.001625   0.002630   0.009512   0.034789   0.024387
     H   62   0.666738   0.000364   0.000335   0.036391   0.000674   0.001305
     H   63   0.014776   0.000462   0.000477   0.004403   0.000623   0.000382
     H   64   0.048000   0.000942   0.000457   0.008500   0.001948   0.001033
     H   65   0.012435   0.000513   0.000433   0.001989   0.002208   0.000988
     H   66   3.445802   0.000501   0.000453   0.001504   0.001738   0.001244
     H   67   3.437778   0.000555   0.000420   0.002149   0.000483   0.000540
     H   68   3.372345   0.000641   0.000991   0.003345   0.001598   0.002260


                  H 55       H 56       H 57       H 58       H 59       H 60
 ------------------------------------------------------------------------------
     H   55   4.246484
     H   56   0.454920   4.248967
     H   57   0.002152   0.001864   4.346244
     H   58   0.000561   0.000551   0.024202   4.230266
     H   59   0.001152   0.001318   0.037952   0.460293   4.162678
     H   60   0.001307   0.000898   0.013330   0.468367   0.464290   4.200746
     H   61   0.003454   0.002616   0.007705   0.001745   0.002060   0.001023
     H   62   0.000412   0.000376   0.004341   0.000549   0.000413   0.000532
     H   63   0.000376   0.000330   0.001306   0.000447   0.000394   0.000203
     H   64   0.001676   0.000411   0.002212   0.000422   0.000593   0.000528
     H   65   0.001019   0.000441   0.001373   0.000392   0.000464   0.000293
     H   66   0.000513   0.000462   0.000882   0.000354   0.000399   0.000296
     H   67   0.000315   0.000436   0.001244   0.000421   0.000368   0.000234
     H   68   0.000836   0.000477   0.003767   0.000589   0.000614   0.000536


                  H 61       H 62       H 63       H 64       H 65       H 66
 ------------------------------------------------------------------------------
     H   61   4.272728
     H   62   0.058572   4.178816
     H   63   0.005783   0.017739   4.228442
     H   64   0.011325   0.017215   0.462375   4.210494
     H   65   0.016687   0.045781   0.464224   0.462326   4.223860
     H   66   0.028887   0.044528   0.006799   0.002729   0.014867   4.225754
     H   67   0.002650   0.020258   0.018916   0.002881   0.007564   0.464939
     H   68   0.024882   0.022538   0.004007   0.008242   0.003813   0.456426


                  H 67       H 68
 ------------------------------
     H   67   4.224199
     H   68   0.458235   4.163072


          HEAT OF FORMATION =    -160.497030 KCALS/MOLE

          ZERO POINT ENERGY     339.856 KCAL/MOL

         NOTE: SYSTEM IS NOT A GROUND STATE, THEREFORE ZERO POINT
         ENERGY IS NOT MEANINGFULL. ZERO POINT ENERGY PRINTED
         DOES NOT INCLUDE THE  3 IMAGINARY FREQUENCIES


           NORMAL COORDINATE ANALYSIS (Total motion = 1 Angstrom)


   Root No.       1         2         3         4         5         6         7         8

                 1 A       2 A       3 A       4 A       5 A       6 A       7 A       8 A   

                -551.0     -82.1     -28.0      29.0      33.7      43.7      47.4      56.4
  
           1    0.0434    0.0032    0.0026   -0.0047   -0.0088    0.0053   -0.0014   -0.0048
           2    0.0409    0.0007    0.0006   -0.0010    0.0028    0.0054    0.0031   -0.0025
           3   -0.1086   -0.0156    0.0040    0.0047   -0.0023   -0.0000   -0.0022   -0.0004
           4   -0.0135    0.0026    0.0025   -0.0046   -0.0089    0.0053   -0.0015   -0.0047
           5    0.0247    0.0013    0.0010   -0.0017    0.0081    0.0008    0.0008   -0.0024
           6   -0.0143   -0.0172    0.0058    0.0036   -0.0062    0.0012   -0.0005   -0.0017
           7   -0.0261    0.0021    0.0021   -0.0042   -0.0122    0.0083   -0.0004   -0.0049
           8   -0.0176   -0.0003    0.0002   -0.0007    0.0003    0.0076    0.0038   -0.0025
           9    0.0936   -0.0197    0.0049    0.0065   -0.0030    0.0000   -0.0016   -0.0020
          10    0.0180    0.0030    0.0018   -0.0040   -0.0107    0.0075   -0.0004   -0.0045
          11   -0.0032    0.0063    0.0011   -0.0023    0.0116   -0.0013    0.0001   -0.0024
          12    0.0102   -0.0283    0.0067    0.0035   -0.0104    0.0016   -0.0011   -0.0023
          13   -0.0001    0.0032    0.0035   -0.0059   -0.0058    0.0020   -0.0038   -0.0054
          14   -0.0325   -0.0083    0.0013   -0.0018    0.0076   -0.0010   -0.0027   -0.0021
          15   -0.0077    0.0039    0.0056    0.0027   -0.0026    0.0021    0.0052   -0.0030
          16    0.0012    0.0073    0.0038   -0.0064   -0.0039    0.0012   -0.0059   -0.0068
          17    0.0071    0.0016    0.0017   -0.0031    0.0125   -0.0026   -0.0089   -0.0052
          18   -0.0002   -0.0013    0.0080    0.0021   -0.0051    0.0026    0.0140   -0.0022
          19    0.0004    0.0031    0.0038   -0.0060   -0.0064    0.0021   -0.0029   -0.0057
          20    0.0077   -0.0073    0.0011    0.0002   -0.0017    0.0073    0.0040   -0.0038
          21   -0.0097   -0.0018    0.0027    0.0038    0.0036   -0.0010   -0.0029    0.0016
          22    0.0048    0.0031    0.0043   -0.0064   -0.0058    0.0011   -0.0033   -0.0062
          23    0.0026    0.0028    0.0007    0.0016   -0.0060    0.0128    0.0072   -0.0074
          24    0.0013   -0.0161    0.0015    0.0035    0.0073   -0.0049   -0.0059    0.0086
          25    0.0023    0.0006    0.0049   -0.0075    0.0001   -0.0055   -0.0031   -0.0018
          26   -0.0057   -0.0162    0.0017    0.0005   -0.0005    0.0000    0.0003    0.0014
          27   -0.0014    0.0128    0.0033    0.0011    0.0065    0.0049    0.0014   -0.0067
          28    0.0003   -0.0007    0.0028    0.0034    0.0109   -0.0083    0.0011    0.0003
          29   -0.0011    0.0003    0.0020   -0.0010   -0.0024   -0.0038    0.0002    0.0051
          30   -0.0012    0.0117    0.0024    0.0059    0.0113    0.0039    0.0029   -0.0060
          31   -0.0002   -0.0022    0.0067   -0.0198   -0.0035   -0.0098   -0.0061    0.0040
          32   -0.0013   -0.0242    0.0014    0.0029   -0.0004    0.0030    0.0009   -0.0017
          33    0.0006   -0.0034    0.0043   -0.0055    0.0036    0.0065   -0.0007   -0.0074
          34   -0.0001    0.0012    0.0017    0.0016    0.0239   -0.0129    0.0036    0.0063
          35   -0.0010    0.0062    0.0023   -0.0013   -0.0042   -0.0051    0.0002    0.0062
          36   -0.0014   -0.0022    0.0017    0.0057    0.0178    0.0059    0.0039   -0.0073
          37   -0.0006   -0.0026    0.0057   -0.0218    0.0080   -0.0149   -0.0041    0.0111
          38   -0.0007   -0.0162    0.0016    0.0034   -0.0022    0.0018    0.0008   -0.0009
          39   -0.0001   -0.0180    0.0039   -0.0065    0.0087    0.0084   -0.0003   -0.0083
          40    0.0056   -0.0023    0.0087   -0.0279   -0.0146   -0.0095   -0.0098    0.0035
          41   -0.0011   -0.0355    0.0011    0.0047    0.0014    0.0064    0.0013   -0.0048
          42    0.0062   -0.0022    0.0055   -0.0100   -0.0025    0.0063   -0.0027   -0.0075
          43   -0.0004    0.0009    0.0029   -0.0108    0.0230   -0.0159    0.0010    0.0118
          44   -0.0002   -0.0014    0.0021    0.0010   -0.0043   -0.0025    0.0004    0.0034
          45   -0.0004   -0.0174    0.0024   -0.0005    0.0168    0.0082    0.0025   -0.0083
          46    0.0002    0.0038   -0.0004    0.0101    0.0349   -0.0145    0.0073    0.0071
          47   -0.0017    0.0175    0.0025   -0.0028   -0.0050   -0.0082   -0.0008    0.0097
          48   -0.0012   -0.0022    0.0006    0.0104    0.0236    0.0054    0.0061   -0.0073
          49    0.0006   -0.0045    0.0069   -0.0316    0.0057   -0.0179   -0.0065    0.0159
          50   -0.0017   -0.0215    0.0013    0.0055   -0.0021    0.0041    0.0011   -0.0036
          51    0.0009   -0.0299    0.0047   -0.0119    0.0066    0.0100   -0.0021   -0.0089
          52    0.0003    0.0031    0.0018   -0.0120    0.0332   -0.0192    0.0030    0.0170
          53   -0.0010    0.0044    0.0022    0.0009   -0.0058   -0.0037    0.0003    0.0042
          54   -0.0000   -0.0284    0.0018   -0.0007    0.0221    0.0099    0.0032   -0.0088
          55    0.0004   -0.0052    0.0021    0.0161    0.0073   -0.0081   -0.0002   -0.0002
          56   -0.0007    0.0067    0.0026   -0.0040   -0.0038   -0.0061    0.0029    0.0068
          57   -0.0001    0.0182    0.0028    0.0090    0.0070    0.0008    0.0060   -0.0038
          58    0.0002   -0.0038    0.0015    0.0179    0.0078   -0.0078   -0.0077    0.0018
          59    0.0002    0.0067    0.0047   -0.0197    0.0001   -0.0066    0.0294   -0.0011
          60   -0.0003    0.0085    0.0050    0.0094    0.0011   -0.0014    0.0325   -0.0094
          61    0.0061    0.0038   -0.0004    0.0210    0.0106   -0.0063   -0.0311    0.0073
          62    0.0002    0.0065    0.0046   -0.0216    0.0055   -0.0045    0.0537   -0.0168
          63   -0.0037    0.0069    0.0054    0.0094   -0.0013   -0.0024    0.0290   -0.0053
          64   -0.0000   -0.0048    0.0030    0.0083    0.0092   -0.0085    0.0081   -0.0017
          65   -0.0009    0.0066    0.0055   -0.0252    0.0005   -0.0073    0.0339   -0.0006
          66   -0.0019    0.0046    0.0054    0.0095    0.0038   -0.0001    0.0617   -0.0252
          67    0.0006   -0.0080    0.0015    0.0257    0.0041   -0.0081   -0.0047    0.0003
          68   -0.0027    0.0068    0.0055   -0.0241   -0.0024   -0.0084    0.0216    0.0073
          69   -0.0039    0.0058    0.0059    0.0095   -0.0039   -0.0036    0.0257   -0.0011
          70    0.0002   -0.0133    0.0047    0.0133    0.0021   -0.0104    0.0354   -0.0096
          71    0.0002    0.0178    0.0027    0.0002   -0.0104   -0.0090   -0.0058    0.0127
          72    0.0006    0.0170    0.0025    0.0085    0.0089    0.0017    0.0020   -0.0034
          73    0.0003   -0.0134    0.0053    0.0106    0.0023   -0.0108    0.0439   -0.0119
          74   -0.0002    0.0163    0.0016    0.0098   -0.0146   -0.0087   -0.0217    0.0178
          75   -0.0005    0.0204    0.0008    0.0085    0.0144    0.0037   -0.0195    0.0017
          76    0.0006   -0.0191    0.0046    0.0214   -0.0032   -0.0107    0.0347   -0.0089
          77   -0.0005    0.0231    0.0031   -0.0009   -0.0122   -0.0103   -0.0046    0.0137
          78   -0.0007    0.0229    0.0030    0.0096    0.0045   -0.0004    0.0034   -0.0017
          79    0.0001   -0.0132    0.0062    0.0059    0.0027   -0.0114    0.0560   -0.0155
          80   -0.0002    0.0228    0.0036   -0.0053   -0.0100   -0.0102    0.0029    0.0109
          81   -0.0001    0.0069    0.0033    0.0073    0.0092    0.0024    0.0189   -0.0097
          82    0.0003   -0.0057   -0.0003    0.0301    0.0068   -0.0070   -0.0310    0.0085
          83    0.0002    0.0025    0.0014    0.0037   -0.0035   -0.0050   -0.0100    0.0099
          84    0.0002    0.0323    0.0023    0.0100    0.0041   -0.0007   -0.0121    0.0036
          85   -0.0004   -0.0052   -0.0001    0.0278    0.0069   -0.0070   -0.0294    0.0080
          86   -0.0004    0.0000   -0.0004    0.0157   -0.0036   -0.0041   -0.0308    0.0157
          87   -0.0037    0.0338    0.0014    0.0076    0.0050    0.0008   -0.0279    0.0070
          88    0.0028   -0.0025   -0.0019    0.0340    0.0071   -0.0057   -0.0553    0.0149
          89    0.0049   -0.0035    0.0018   -0.0016   -0.0005   -0.0038    0.0009    0.0047
          90   -0.0062    0.0340    0.0027    0.0112    0.0023   -0.0019   -0.0077    0.0038
          91   -0.0015   -0.0099   -0.0009    0.0399    0.0060   -0.0074   -0.0329    0.0098
          92   -0.0028    0.0094    0.0017    0.0038   -0.0056   -0.0065   -0.0114    0.0120
          93   -0.0040    0.0378    0.0025    0.0114    0.0019   -0.0021   -0.0135    0.0057
          94    0.0096    0.0008    0.0046   -0.0067   -0.0052   -0.0001   -0.0037   -0.0056
          95   -0.0014   -0.0387    0.0021   -0.0013   -0.0003    0.0008    0.0006    0.0013
          96   -0.0062    0.0467    0.0028    0.0037    0.0055    0.0039    0.0010   -0.0070
          97    0.0023   -0.0030   -0.0029    0.0021   -0.0008    0.0498    0.0036    0.0197
          98   -0.0074   -0.0019   -0.0009   -0.0006    0.0118    0.0138   -0.0058   -0.0055
          99    0.0015   -0.0008   -0.0061   -0.0012   -0.0181   -0.0113    0.0043    0.0197
         100    0.0009    0.0011   -0.0073    0.0128   -0.0126    0.0547    0.0141    0.0240
         101   -0.0037   -0.0005   -0.0083    0.0013    0.0011    0.0100   -0.0067   -0.0052
         102   -0.0033   -0.0006   -0.0059   -0.0007   -0.0181   -0.0108    0.0050    0.0198
         103    0.0014   -0.0100   -0.0035    0.0004    0.0033    0.0643    0.0025    0.0278
         104   -0.0008   -0.0040    0.0019   -0.0005    0.0164    0.0205   -0.0042   -0.0031
         105   -0.0079   -0.0010   -0.0106   -0.0022   -0.0231   -0.0143    0.0014    0.0197
         106    0.0009    0.0007    0.0039   -0.0096    0.0096    0.0253   -0.0084    0.0045
         107   -0.0004   -0.0005    0.0053   -0.0032    0.0196    0.0098   -0.0068   -0.0107
         108   -0.0020   -0.0002   -0.0006   -0.0004   -0.0118   -0.0082    0.0072    0.0184
         109    0.0139    0.0081    0.0036   -0.0081    0.0044    0.0141   -0.0071   -0.0020
         110   -0.0232    0.0017    0.0033   -0.0031    0.0156    0.0039   -0.0075   -0.0118
         111    0.0038    0.0023    0.0035    0.0008   -0.0076   -0.0046    0.0098    0.0142
         112   -0.0054    0.0000   -0.0023    0.0019   -0.0061   -0.0063    0.0009   -0.0063
         113   -0.0052    0.0074   -0.0025   -0.0036    0.0062    0.0033    0.0018    0.0061
         114   -0.0010   -0.0037    0.0019    0.0019    0.0036   -0.0065   -0.0014    0.0069
         115   -0.0263    0.0013   -0.0009   -0.0004   -0.0023   -0.0029    0.0014   -0.0035
         116    0.0106    0.0070   -0.0033   -0.0024    0.0043    0.0012    0.0016    0.0048
         117    0.0140   -0.0069    0.0023    0.0025   -0.0006   -0.0027   -0.0022    0.0029
         118    0.0155    0.0012   -0.0006   -0.0001   -0.0015   -0.0034    0.0017   -0.0030
         119   -0.0037    0.0062   -0.0057    0.0003    0.0007   -0.0032    0.0012    0.0022
         120   -0.0098   -0.0054    0.0003   -0.0002   -0.0056    0.0002   -0.0048   -0.0004
         121   -0.0131   -0.0001   -0.0031    0.0022   -0.0055   -0.0058    0.0013   -0.0059
         122    0.0136    0.0050   -0.0074    0.0029   -0.0020   -0.0045    0.0009   -0.0001
         123   -0.0042   -0.0033   -0.0006   -0.0082   -0.0052   -0.0023   -0.0061    0.0024
         124   -0.0001   -0.0016   -0.0045    0.0040   -0.0099   -0.0081    0.0002   -0.0097
         125    0.0025    0.0057   -0.0083    0.0031   -0.0004   -0.0027    0.0013    0.0004
         126   -0.0020   -0.0027    0.0111   -0.0152   -0.0014   -0.0063   -0.0061    0.0094
[...]
 FORCE CONSTANT      1.9062

 VIBRATION        167  167A           ATOM PAIR      ENERGY CONTRIBUTION    RADIAL
 FREQUENCY          2657.62         C 45 -- H 59         +70.9% ( 86.8%)     99.7%
 TRANSITION DIPOLE   0.4492         C 45 -- H 60         +16.9% ( 42.4%)     87.8%
 TRAVEL (Ang.)       0.2137         C 45 -- H 58          +9.8% ( 32.2%)     77.4%
 REDUCED MASS        0.5555         C 44 -- H 57          +1.2% ( 11.3%)     99.3%
 EFFECTIVE MASS      1.4388
 FORCE CONSTANT      2.3116

 VIBRATION        168  168A           ATOM PAIR      ENERGY CONTRIBUTION    RADIAL
 FREQUENCY          2662.13         C 49 -- H 68         +57.1% ( 77.7%)     99.5%
 TRANSITION DIPOLE   0.7757         C 49 -- H 67         +18.1% ( 43.8%)     91.1%
 TRAVEL (Ang.)       0.2571         C 47 -- H 62         +10.6% ( 33.4%)    100.0%
 REDUCED MASS        0.3831         C 49 -- H 66          +4.7% ( 22.4%)     64.1%
 EFFECTIVE MASS      1.4344
 FORCE CONSTANT      1.5996

 VIBRATION        169  169A           ATOM PAIR      ENERGY CONTRIBUTION    RADIAL
 FREQUENCY          2663.95         C 33 -- H 35         +95.6% ( 99.3%)    100.0%
 TRANSITION DIPOLE   0.4124         C 33 -- O 34          +1.7% ( 13.1%)     49.8%
 TRAVEL (Ang.)       0.1671         C 33 -- O 36          +1.5% ( 12.4%)      4.4%
 REDUCED MASS        0.9066         C 20 -- H 21          +0.3% (  6.0%)     99.0%
 EFFECTIVE MASS      1.4678
 FORCE CONSTANT      3.7906

 VIBRATION        170  170A           ATOM PAIR      ENERGY CONTRIBUTION    RADIAL
 FREQUENCY          2668.07         C 20 -- H 21         +30.9% ( 57.5%)     99.0%
 TRANSITION DIPOLE   0.1621         C 20 -- H 22         +18.5% ( 44.5%)     95.2%
 TRAVEL (Ang.)       0.3596         C 28 -- H 30         +17.3% ( 43.0%)     98.4%
 REDUCED MASS        0.1955         C 28 -- H 31         +12.6% ( 36.7%)     96.6%
 EFFECTIVE MASS      1.4439
 FORCE CONSTANT      0.8198

 VIBRATION        171  171A           ATOM PAIR      ENERGY CONTRIBUTION    RADIAL
 FREQUENCY          2670.84         C 43 -- H 56         +44.5% ( 68.8%)     98.1%
 TRANSITION DIPOLE   0.7130         C 43 -- H 55         +42.0% ( 66.8%)     98.1%
 TRAVEL (Ang.)       0.2543         C 42 -- H 53          +3.9% ( 20.3%)     98.5%
 REDUCED MASS        0.3903         C 38 -- H 50          +3.5% ( 19.4%)     97.6%
 EFFECTIVE MASS      1.4482
 FORCE CONSTANT      1.6403

 VIBRATION        172  172A           ATOM PAIR      ENERGY CONTRIBUTION    RADIAL
 FREQUENCY          2671.68         C 20 -- H 21         +22.6% ( 49.0%)     99.1%
 TRANSITION DIPOLE   0.5361         C 24 -- H 26         +18.6% ( 44.5%)     98.9%
 TRAVEL (Ang.)       0.4043         C 28 -- H 31         +16.1% ( 41.4%)     99.4%
 REDUCED MASS        0.1544         C 24 -- H 27         +12.6% ( 36.7%)     96.1%
 EFFECTIVE MASS      1.4492         C 20 -- H 22         +12.5% ( 36.5%)     94.6%
 FORCE CONSTANT      0.6493

 VIBRATION        173  173A           ATOM PAIR      ENERGY CONTRIBUTION    RADIAL
 FREQUENCY          2674.19         C 24 -- H 27         +27.8% ( 54.4%)     98.5%
 TRANSITION DIPOLE   0.6106         C 28 -- H 30         +23.9% ( 50.5%)     98.3%
 TRAVEL (Ang.)       0.3395         C 24 -- H 26         +20.7% ( 46.9%)     96.8%
 REDUCED MASS        0.2187         C 28 -- H 31         +17.8% ( 43.5%)     96.7%
 EFFECTIVE MASS      1.4651
 FORCE CONSTANT      0.9216

 VIBRATION        174  174A           ATOM PAIR      ENERGY CONTRIBUTION    RADIAL
 FREQUENCY          2675.46         C 45 -- H 60         +43.9% ( 68.2%)     97.7%
 TRANSITION DIPOLE   0.4743         C 45 -- H 58         +42.8% ( 67.4%)     98.2%
 TRAVEL (Ang.)       0.2542         C 48 -- H 64          +4.1% ( 20.7%)     99.3%
 REDUCED MASS        0.3900         N 46 -- H 61          +3.0% ( 17.9%)     99.8%
 EFFECTIVE MASS      1.4386
 FORCE CONSTANT      1.6447

 VIBRATION        175  175A           ATOM PAIR      ENERGY CONTRIBUTION    RADIAL
 FREQUENCY          2675.76         N 46 -- H 61         +29.0% ( 55.1%)     99.8%
 TRANSITION DIPOLE   0.7071         C 48 -- H 64         +28.2% ( 54.4%)     99.1%
 TRAVEL (Ang.)       0.3542         C 48 -- H 65         +16.0% ( 40.9%)     95.2%
 REDUCED MASS        0.2008         C 45 -- H 58          +5.1% ( 23.1%)     98.3%
 EFFECTIVE MASS      1.4251
 FORCE CONSTANT      0.8472

 VIBRATION        176  176A           ATOM PAIR      ENERGY CONTRIBUTION    RADIAL
 FREQUENCY          2676.84         C 28 -- H 29         +50.9% ( 73.6%)     99.6%
 TRANSITION DIPOLE   0.4173         C 28 -- H 30         +14.1% ( 38.7%)     88.9%
 TRAVEL (Ang.)       0.2855         C 28 -- H 31          +9.1% ( 31.0%)     80.6%
 REDUCED MASS        0.3092         C 24 -- H 25          +8.1% ( 29.3%)     99.3%
 EFFECTIVE MASS      1.4622
 FORCE CONSTANT      1.3052

 VIBRATION        177  177A           ATOM PAIR      ENERGY CONTRIBUTION    RADIAL
 FREQUENCY          2677.90         C 49 -- H 66         +28.3% ( 54.7%)     97.9%
 TRANSITION DIPOLE   0.8512         C 49 -- H 67         +27.0% ( 53.4%)     98.0%
 TRAVEL (Ang.)       0.3499         N 46 -- H 61         +14.9% ( 39.7%)     99.8%
 REDUCED MASS        0.2057         C 48 -- H 65         +13.6% ( 38.0%)     99.1%
 EFFECTIVE MASS      1.4410
 FORCE CONSTANT      0.8689

 VIBRATION        178  178A           ATOM PAIR      ENERGY CONTRIBUTION    RADIAL
 FREQUENCY          2680.17         C 24 -- H 25         +40.9% ( 65.9%)     99.6%
 TRANSITION DIPOLE   0.3431         C 24 -- H 26         +11.2% ( 34.4%)     86.8%
 TRAVEL (Ang.)       0.3392         C 24 -- H 27         +10.7% ( 33.7%)     86.3%
 REDUCED MASS        0.2187         C 20 -- H 23          +7.6% ( 28.4%)     98.9%
 EFFECTIVE MASS      1.4608
 FORCE CONSTANT      0.9255

 VIBRATION        179  179A           ATOM PAIR      ENERGY CONTRIBUTION    RADIAL
 FREQUENCY          2680.72         C 48 -- H 63         +45.1% ( 69.1%)     99.5%
 TRANSITION DIPOLE   0.9972         C 48 -- H 64         +16.3% ( 41.5%)     90.1%
 TRAVEL (Ang.)       0.3055         N 46 -- H 61         +12.8% ( 36.7%)     99.9%
 REDUCED MASS        0.2695         C 48 -- H 65         +10.0% ( 32.5%)     81.8%
 EFFECTIVE MASS      1.4533
 FORCE CONSTANT      1.1412

 VIBRATION        180  180A           ATOM PAIR      ENERGY CONTRIBUTION    RADIAL
 FREQUENCY          2683.34         C 20 -- H 23         +48.2% ( 71.6%)     99.2%
 TRANSITION DIPOLE   0.7242         C 20 -- H 22         +25.7% ( 52.2%)     94.2%
 TRAVEL (Ang.)       0.2781         C 20 -- H 21          +6.7% ( 26.7%)     70.3%
 REDUCED MASS        0.3248         C 24 -- H 25          +6.5% ( 26.3%)     98.1%
 EFFECTIVE MASS      1.4657
 FORCE CONSTANT      1.3781

 VIBRATION        181  181A           ATOM PAIR      ENERGY CONTRIBUTION    RADIAL
 FREQUENCY          2691.84         N 46 -- H 61         +21.6% ( 47.2%)     99.8%
 TRANSITION DIPOLE   1.5653         C 49 -- H 66         +18.8% ( 44.1%)     98.8%
 TRAVEL (Ang.)       0.3915         C 47 -- H 62         +17.2% ( 42.1%)     99.8%
 REDUCED MASS        0.1635         C 49 -- H 67         +15.6% ( 40.1%)     96.3%
 EFFECTIVE MASS      1.4426         C 48 -- H 65         +13.0% ( 36.6%)     99.3%
 FORCE CONSTANT      0.6978

 VIBRATION        182  182A           ATOM PAIR      ENERGY CONTRIBUTION    RADIAL
 FREQUENCY          2723.80         C 38 -- H 50         +57.9% ( 75.3%)     98.3%
 TRANSITION DIPOLE   0.6589         C 38 -- H 51         +27.0% ( 51.4%)     93.3%
 TRAVEL (Ang.)       0.2437         C 11 -- H 14         +12.7% ( 35.2%)    100.0%
 REDUCED MASS        0.4169         C 38 -- C 39          +0.5% (  6.7%)     13.8%
 EFFECTIVE MASS      1.2696
 FORCE CONSTANT      1.8222

 VIBRATION        183  183A           ATOM PAIR      ENERGY CONTRIBUTION    RADIAL
 FREQUENCY          2729.24         C 42 -- H 53         +51.2% ( 70.6%)     97.9%
 TRANSITION DIPOLE   0.7694         C 42 -- H 54         +32.8% ( 56.5%)     94.9%
 TRAVEL (Ang.)       0.2564         C 11 -- H 14         +10.0% ( 31.2%)    100.0%
 REDUCED MASS        0.3759         C 38 -- H 50          +1.6% ( 12.3%)     98.2%
 EFFECTIVE MASS      1.2621
 FORCE CONSTANT      1.6495

 VIBRATION        184  184A           ATOM PAIR      ENERGY CONTRIBUTION    RADIAL
 FREQUENCY          2737.83         C 44 -- H 57         +67.7% ( 83.4%)     99.9%
 TRANSITION DIPOLE   0.4067         C  1 -- H  3         +25.1% ( 50.8%)    100.0%
 TRAVEL (Ang.)       0.2189         C 45 -- H 58          +2.4% ( 15.7%)     98.9%
 REDUCED MASS        0.5140         C 40 -- H 52          +1.1% ( 10.6%)    100.0%
 EFFECTIVE MASS      1.3730
 FORCE CONSTANT      2.2702

 VIBRATION        185  185A           ATOM PAIR      ENERGY CONTRIBUTION    RADIAL
 FREQUENCY          2739.63         C 12 -- H 16         +48.7% ( 70.2%)    100.0%
 TRANSITION DIPOLE   1.0565         C 11 -- H 14         +31.7% ( 56.7%)    100.0%
 TRAVEL (Ang.)       0.2740         C 42 -- H 53          +3.2% ( 18.0%)     97.1%
 REDUCED MASS        0.3280         C 15 -- H 18          +3.0% ( 17.3%)     99.7%
 EFFECTIVE MASS      1.3584
 FORCE CONSTANT      1.4503

 VIBRATION        186  186A           ATOM PAIR      ENERGY CONTRIBUTION    RADIAL
 FREQUENCY          2743.42         C 12 -- H 16         +39.2% ( 62.8%)    100.0%
 TRANSITION DIPOLE   0.5733         C 11 -- H 14         +35.4% ( 59.7%)    100.0%
 TRAVEL (Ang.)       0.2993         C 43 -- H 56          +7.1% ( 26.7%)     97.9%
 REDUCED MASS        0.2743         C 43 -- H 55          +4.8% ( 21.9%)     95.3%
 EFFECTIVE MASS      1.3400
 FORCE CONSTANT      1.2165

 VIBRATION        187  187A           ATOM PAIR      ENERGY CONTRIBUTION    RADIAL
 FREQUENCY          2744.20         C 43 -- H 55         +43.1% ( 64.8%)     96.5%
 TRANSITION DIPOLE   0.4854         C 43 -- H 56         +41.8% ( 63.8%)     96.3%
 TRAVEL (Ang.)       0.2601         C 11 -- H 14          +5.0% ( 22.0%)    100.0%
 REDUCED MASS        0.3633         C 12 -- H 16          +4.6% ( 21.2%)    100.0%
 EFFECTIVE MASS      1.2655
 FORCE CONSTANT      1.6121

 VIBRATION        188  188A           ATOM PAIR      ENERGY CONTRIBUTION    RADIAL
 FREQUENCY          2747.44         C  1 -- H  3         +70.4% ( 85.2%)    100.0%
 TRANSITION DIPOLE   1.0108         C 44 -- H 57         +21.7% ( 47.2%)     99.9%
 TRAVEL (Ang.)       0.2132         C 40 -- H 52          +2.8% ( 17.1%)     99.9%
 REDUCED MASS        0.5397         C  1 -- C 44          +1.1% ( 10.5%)      2.0%
 EFFECTIVE MASS      1.4084
 FORCE CONSTANT      2.4004

 VIBRATION        189  189A           ATOM PAIR      ENERGY CONTRIBUTION    RADIAL
 FREQUENCY          2761.70         C 13 -- H 17         +42.3% ( 65.7%)    100.0%
 TRANSITION DIPOLE   0.8838         C 15 -- H 18         +41.7% ( 65.2%)    100.0%
 TRAVEL (Ang.)       0.2638         C 40 -- H 52          +9.4% ( 30.9%)    100.0%
 REDUCED MASS        0.3508         C 12 -- H 16          +2.6% ( 16.2%)     99.3%
 EFFECTIVE MASS      1.3638
 FORCE CONSTANT      1.5764

 VIBRATION        190  190A           ATOM PAIR      ENERGY CONTRIBUTION    RADIAL
 FREQUENCY          2762.35         C 40 -- H 52         +84.0% ( 92.4%)    100.0%
 TRANSITION DIPOLE   0.5789         C 13 -- H 17          +5.4% ( 23.4%)    100.0%
 TRAVEL (Ang.)       0.1884         C 15 -- H 18          +3.8% ( 19.5%)     99.9%
 REDUCED MASS        0.6874         C 44 -- H 57          +2.5% ( 16.0%)     99.6%
 EFFECTIVE MASS      1.3636
 FORCE CONSTANT      3.0904

 VIBRATION        191  191A           ATOM PAIR      ENERGY CONTRIBUTION    RADIAL
 FREQUENCY          2772.55         C 15 -- H 18         +46.4% ( 68.8%)    100.0%
 TRANSITION DIPOLE   0.9820         C 13 -- H 17         +45.7% ( 68.2%)    100.0%
 TRAVEL (Ang.)       0.2418         C 12 -- H 16          +2.7% ( 16.7%)     99.8%
 REDUCED MASS        0.4161         C 11 -- H 14          +2.1% ( 14.7%)     99.7%
 EFFECTIVE MASS      1.4324
 FORCE CONSTANT      1.8844

 VIBRATION        192  192A           ATOM PAIR      ENERGY CONTRIBUTION    RADIAL
 FREQUENCY          2777.22         C 45 -- H 58         +38.5% ( 59.6%)     96.4%
 TRANSITION DIPOLE   0.4275         C 45 -- H 60         +33.0% ( 55.3%)     95.5%
 TRAVEL (Ang.)       0.2768         C 45 -- H 59         +25.4% ( 48.5%)     93.9%
 REDUCED MASS        0.3170         C 44 -- H 57          +2.1% ( 13.9%)     95.3%
 EFFECTIVE MASS      1.1522
 FORCE CONSTANT      1.4404

 VIBRATION        193  193A           ATOM PAIR      ENERGY CONTRIBUTION    RADIAL
 FREQUENCY          2778.88         C 24 -- H 26         +32.2% ( 54.5%)     96.2%
 TRANSITION DIPOLE   0.4527         C 24 -- H 25         +31.2% ( 53.6%)     95.8%
 TRAVEL (Ang.)       0.2928         C 24 -- H 27         +29.3% ( 51.9%)     95.6%
 REDUCED MASS        0.2831         C 28 -- H 30          +1.8% ( 12.8%)     96.7%
 EFFECTIVE MASS      1.1298
 FORCE CONSTANT      1.2878

 VIBRATION        194  194A           ATOM PAIR      ENERGY CONTRIBUTION    RADIAL
 FREQUENCY          2779.26         C 49 -- H 67         +32.1% ( 54.4%)     96.3%
 TRANSITION DIPOLE   0.4139         C 49 -- H 66         +31.1% ( 53.5%)     96.1%
 TRAVEL (Ang.)       0.3137         C 49 -- H 68         +21.3% ( 44.4%)     93.5%
 REDUCED MASS        0.2466         C 48 -- H 64          +4.7% ( 20.7%)     95.7%
 EFFECTIVE MASS      1.1348
 FORCE CONSTANT      1.1221

 VIBRATION        195  195A           ATOM PAIR      ENERGY CONTRIBUTION    RADIAL
 FREQUENCY          2781.16         C 28 -- H 31         +29.2% ( 51.8%)     96.3%
 TRANSITION DIPOLE   0.3760         C 28 -- H 30         +27.2% ( 50.0%)     96.2%
 TRAVEL (Ang.)       0.3277         C 28 -- H 29         +24.9% ( 47.9%)     95.0%
 REDUCED MASS        0.2257         C 20 -- H 23          +5.5% ( 22.5%)     96.5%
 EFFECTIVE MASS      1.1324
 FORCE CONSTANT      1.0287

 VIBRATION        196  196A           ATOM PAIR      ENERGY CONTRIBUTION    RADIAL
 FREQUENCY          2783.46         C 48 -- H 63         +29.9% ( 52.5%)     95.8%
 TRANSITION DIPOLE   0.5191         C 48 -- H 65         +29.4% ( 52.0%)     95.7%
 TRAVEL (Ang.)       0.3135         C 48 -- H 64         +26.1% ( 49.0%)     95.0%
 REDUCED MASS        0.2466         C 49 -- H 67          +5.4% ( 22.2%)     95.9%
 EFFECTIVE MASS      1.1377
 FORCE CONSTANT      1.1255

 VIBRATION        197  197A           ATOM PAIR      ENERGY CONTRIBUTION    RADIAL
 FREQUENCY          2784.17         C 20 -- H 23         +30.5% ( 53.0%)     96.1%
 TRANSITION DIPOLE   0.2911         C 20 -- H 21         +26.9% ( 49.7%)     95.9%
 TRAVEL (Ang.)       0.3223         C 20 -- H 22         +25.5% ( 48.5%)     95.2%
 REDUCED MASS        0.2331         C 28 -- H 31          +4.8% ( 21.0%)     95.9%
 EFFECTIVE MASS      1.1348
 FORCE CONSTANT      1.0648

 VIBRATION        198  198A           ATOM PAIR      ENERGY CONTRIBUTION    RADIAL
 FREQUENCY          2808.50         C  2 -- H  4         +96.7% ( 99.5%)    100.0%
 TRANSITION DIPOLE   1.0861         C  1 -- C  2          +1.2% ( 11.2%)     39.7%
 TRAVEL (Ang.)       0.1621         C  2 -- C  5          +1.2% ( 11.2%)     24.3%
 REDUCED MASS        0.9142         C 40 -- H 52          +0.5% (  6.8%)     99.3%
 EFFECTIVE MASS      1.4217
 FORCE CONSTANT      4.2484

           FORCE CONSTANT IN CARTESIAN COORDINATES (Millidynes/A)

    ATOM   CHEMICAL       X               Y               Z
   NUMBER   SYMBOL  FORCE CONSTANT  FORCE CONSTANT  FORCE CONSTANT

      1       C       10.278259        6.750859        2.060962
      2       C       10.906119        7.749094        3.452668
      3       H        1.961010        2.971595        0.597273
      4       H        2.120225        2.592099        0.801570
      5       C       14.262599        8.031681        3.548406
      6       O       11.112884        5.032068        1.191967
      7       C       15.225669        6.793811        3.907333
      8       O       12.118179        2.115938        1.247370
      9       C        4.646397       10.648460        9.518294
     10       C        4.230393       10.039573        9.461357
     11       C        4.151862       11.248270        8.118901
     12       C        4.149763       11.131673        8.054337
     13       C        4.449291       10.332718        9.110795
     14       H        1.254077        0.944334        3.334186
     15       C        4.584772       10.033416        9.141543
     16       H        1.203546        1.056691        3.366765
     17       H        1.077997        3.111803        1.399508
     18       H        0.551209        3.567064        1.480068
     19       C        7.291814        7.708612        7.151242
     20       C        6.511016        6.464340        6.443057
     21       H        0.920806        0.899489        3.623769
     22       H        1.675479        3.143189        0.630798
     23       H        1.352811        2.177955        1.929268
     24       C        6.484243        6.619529        6.304037
     25       H        3.720933        0.847026        0.893796
     26       H        0.686036        2.915794        1.862315
     27       H        1.816078        2.387062        1.244407
     28       C        6.453573        6.481375        6.592467
     29       H        3.980705        0.827994        0.648917
     30       H        1.031993        1.437176        3.047902
     31       H        0.634432        2.367882        2.470741
     32       N        8.411031        9.095052        4.207065
     33       C        2.891267        8.390498       15.273503
     34       O        0.438188        1.166189       13.568997
     35       H        0.604094        2.876494        1.659076
     36       O        1.418558        9.289030        5.488536
     37       H        0.762327        2.752533        1.121357
     38       C        6.979978        7.499576        6.201948
     39       C       11.125188       10.666198        3.201575
     40       C       10.918699        9.438326        2.440911
     41       C       12.598508       10.545427        2.987105
     42       C        7.302454        7.102909        6.239684
     43       C        7.081970        6.961192        6.642067
     44       C        9.210752        9.232032        1.665838
     45       C        7.479708        6.415151        6.150635
     46       N       12.385736        8.202150        1.993649
     47       C        7.431031        7.330529        7.101491
     48       C        6.495773        6.464404        6.576190
     49       C        6.681830        6.494988        6.444656
     50       H        3.155888        0.879450        1.536469
     51       H        0.986100        0.932528        3.509718
     52       H        1.656990        3.465808        0.501155
     53       H        1.832076        2.709186        1.014980
     54       H        0.767078        0.817915        3.850038
     55       H        0.848060        0.704058        4.086620
     56       H        1.563934        3.305228        0.751553
     57       H        1.474832        3.306817        0.916772
     58       H        1.181513        3.537859        0.730527
     59       H        1.259063        1.830693        2.332550
     60       H        1.501768        0.800437        3.086383
     61       H        1.999505        3.021923        0.650716
     62       H        1.829188        2.979823        0.948499
     63       H        1.668368        2.920843        0.838130
     64       H        2.585747        0.572567        2.266954
     65       H        1.710978        2.749743        0.983000
     66       H        1.875104        2.846764        0.717359
     67       H        1.919796        2.834918        0.658996
     68       H        1.066756        0.576698        3.757226

 **********************
 *                    *
 * JOB ENDED NORMALLY *
 *                    *
 **********************



 TOTAL JOB TIME:            39.57 SECONDS

 == MOPAC DONE ==
