 *******************************************************************************
 ** Site#: 36969        For non-commercial use only    Version 21.051W 64BITS **
 *******************************************************************************
 ** Cite this program as: MOPAC2016, Version: 21.051W, James J. P. Stewart,   **
 ** Stewart Computational Chemistry, web: HTTP://OpenMOPAC.net. Days left: 282**
 *******************************************************************************
 **                                                                           **
 **                                MOPAC2016                                  **
 **                                                                           **
 *******************************************************************************

                              PM7 CALCULATION RESULTS

 *******************************************************************************
 *  CALCULATION DONE:                                Fri May 14 11:26:02 2021  *
 *  PM7        - The PM7 Hamiltonian to be used
 *  LET        - OVERRIDE SOME SAFETY CHECKS
 *  FORCE      - FORCE CALCULATION SPECIFIED
 *  T=         - A TIME OF 172800.0 SECONDS REQUESTED
 *  DUMP=N     - RESTART FILE WRITTEN EVERY 7200.0 SECONDS REQUESTED
 *******************************************************************************
PM7 FORCE LET
 TEST_ROUGH_FREQ

   ATOM   CHEMICAL          X               Y               Z
  NUMBER   SYMBOL      (ANGSTROMS)     (ANGSTROMS)     (ANGSTROMS)
 
     1       C          0.58771129  *  -1.19423425  *  -0.61231238  *
     2       C          1.66605541  *  -1.08387909  *  -1.45170234  *
     3       H         -0.44851176  *  -1.35289079  *  -0.87701133  *
     4       H          1.66863180  *  -0.84018523  *  -2.49192055  *
     5       C          2.89113790  *  -1.32377611  *  -0.70423892  *
     6       O          4.05452095  *  -1.19770147  *  -1.03592831  *
     7       C          1.09052549  *  -1.64514535  *   0.74216097  *
     8       O          0.49795747  *  -1.88384550  *   1.75796377  *
     9       C          3.37177958  *  -2.22235335  *   1.62746153  *
    10       C          4.11811255  *  -3.40687592  *   1.53489259  *
    11       C          3.44285290  *  -1.41146408  *   2.77585924  *
    12       C          5.05368777  *  -3.63953847  *   2.55571828  *
    13       C          4.33112574  *  -1.70826152  *   3.79724649  *
    14       H          2.77999653  *  -0.55036624  *   2.86729929  *
    15       C          5.16673604  *  -2.81481239  *   3.66771625  *
    16       H          5.72028574  *  -4.49910407  *   2.48297816  *
    17       H          4.37700754  *  -1.08356265  *   4.68626648  *
    18       H          5.89727300  *  -3.04107222  *   4.44036157  *
    19       C          4.00552346  *  -4.46012807  *   0.44325487  *
    20       C          5.10120601  *  -4.19098861  *  -0.59926386  *
    21       H          4.90850437  *  -3.26905888  *  -1.16057483  *
    22       H          6.08340598  *  -4.07095334  *  -0.12707913  *
    23       H          5.16773575  *  -5.00555507  *  -1.32475368  *
    24       C          4.22031298  *  -5.86571375  *   1.05157447  *
    25       H          3.55748757  *  -6.02706475  *   1.90854150  *
    26       H          4.00748981  *  -6.64697702  *   0.31464878  *
    27       H          5.25130744  *  -6.02134800  *   1.38116821  *
    28       C          2.62879885  *  -4.50192248  *  -0.23912029  *
    29       H          1.82063533  *  -4.39644945  *   0.49266831  *
    30       H          2.51763141  *  -3.72291172  *  -0.99677452  *
    31       H          2.47323012  *  -5.44939240  *  -0.76311319  *
    32       N          2.50308274  *  -1.77043089  *   0.59943323  *
    33       C          6.93783884  *  -0.41459481  *   0.67428168  *
    34       O          6.67699000  *   0.71648900  *   0.31772200  *
    35       H          7.81213800  *  -0.70968200  *   1.25343400  *
    36       O          6.18197900  *  -1.46276900  *   0.41814100  *
    37       H          5.30885600  *  -1.31095400  *  -0.13327400  *
    38       C          1.44675500  *   1.55429000  *   1.75245600  *
    39       C          1.15527500  *   1.34686700  *   0.29674800  *
    40       C          2.16581200  *   1.58282500  *  -0.66063600  *
    41       C          3.50321000  *   1.69714200  *  -0.30898200  *
    42       C          3.89754400  *   1.64788100  *   1.14547700  *
    43       C          2.78589400  *   2.25683300  *   2.00117700  *
    44       C         -0.06076800  *   0.82474100  *  -0.10673000  *
    45       C         -1.19521600  *   0.62315900  *   0.84336900  *
    46       N          4.52905400  *   1.82410600  *  -1.17670600  *
    47       C          4.37338300  *   1.89116500  *  -2.64219400  *
    48       C          4.90049700  *   3.25514500  *  -3.11577900  *
    49       C          5.15605100  *   0.74614800  *  -3.29497300  *
    50       H          0.62729000  *   2.14752700  *   2.21314600  *
    51       H          1.41596400  *   0.57473200  *   2.28121900  *
    52       H          1.86972700  *   1.62331700  *  -1.70398400  *
    53       H          4.86146800  *   2.16857300  *   1.33192500  *
    54       H          4.09114000  *   0.58945400  *   1.43278700  *
    55       H          2.68875000  *   3.33642900  *   1.76805100  *
    56       H          3.05507700  *   2.19858800  *   3.07240000  *
    57       H         -0.35828100  *   0.93176100  *  -1.15101000  *
    58       H         -2.04625800  *   0.11914700  *   0.36904800  *
    59       H         -0.91322000  *   0.01189800  *   1.71510000  *
    60       H         -1.56684600  *   1.58270700  *   1.22912800  *
    61       H          5.48124400  *   1.64087300  *  -0.83592200  *
    62       H          3.28802600  *   1.79867100  *  -2.91388600  *
    63       H          4.80223300  *   3.35759100  *  -4.20116600  *
    64       H          4.34695500  *   4.07839900  *  -2.64851300  *
    65       H          5.95853500  *   3.38853300  *  -2.86360900  *
    66       H          6.22861300  *   0.80613200  *  -3.08231400  *
    67       H          5.02965100  *   0.75034800  *  -4.38163100  *
    68       H          4.80772200  *  -0.23213500  *  -2.92440800  *
 


          CARTESIAN COORDINATES 

    NO.       ATOM           X           Y           Z

     1         C          0.5877     -1.1942     -0.6123
     2         C          1.6661     -1.0839     -1.4517
     3         H         -0.4485     -1.3529     -0.8770
     4         H          1.6686     -0.8402     -2.4919
     5         C          2.8911     -1.3238     -0.7042
     6         O          4.0545     -1.1977     -1.0359
     7         C          1.0905     -1.6451      0.7422
     8         O          0.4980     -1.8838      1.7580
     9         C          3.3718     -2.2224      1.6275
    10         C          4.1181     -3.4069      1.5349
    11         C          3.4429     -1.4115      2.7759
    12         C          5.0537     -3.6395      2.5557
    13         C          4.3311     -1.7083      3.7972
    14         H          2.7800     -0.5504      2.8673
    15         C          5.1667     -2.8148      3.6677
    16         H          5.7203     -4.4991      2.4830
    17         H          4.3770     -1.0836      4.6863
    18         H          5.8973     -3.0411      4.4404
    19         C          4.0055     -4.4601      0.4433
    20         C          5.1012     -4.1910     -0.5993
    21         H          4.9085     -3.2691     -1.1606
    22         H          6.0834     -4.0710     -0.1271
    23         H          5.1677     -5.0056     -1.3248
    24         C          4.2203     -5.8657      1.0516
    25         H          3.5575     -6.0271      1.9085
    26         H          4.0075     -6.6470      0.3146
    27         H          5.2513     -6.0213      1.3812
    28         C          2.6288     -4.5019     -0.2391
    29         H          1.8206     -4.3964      0.4927
    30         H          2.5176     -3.7229     -0.9968
    31         H          2.4732     -5.4494     -0.7631
    32         N          2.5031     -1.7704      0.5994
    33         C          6.9378     -0.4146      0.6743
    34         O          6.6770      0.7165      0.3177
    35         H          7.8121     -0.7097      1.2534
    36         O          6.1820     -1.4628      0.4181
    37         H          5.3089     -1.3110     -0.1333
    38         C          1.4468      1.5543      1.7525
    39         C          1.1553      1.3469      0.2967
    40         C          2.1658      1.5828     -0.6606
    41         C          3.5032      1.6971     -0.3090
    42         C          3.8975      1.6479      1.1455
    43         C          2.7859      2.2568      2.0012
    44         C         -0.0608      0.8247     -0.1067
    45         C         -1.1952      0.6232      0.8434
    46         N          4.5291      1.8241     -1.1767
    47         C          4.3734      1.8912     -2.6422
    48         C          4.9005      3.2551     -3.1158
    49         C          5.1561      0.7461     -3.2950
    50         H          0.6273      2.1475      2.2131
    51         H          1.4160      0.5747      2.2812
    52         H          1.8697      1.6233     -1.7040
    53         H          4.8615      2.1686      1.3319
    54         H          4.0911      0.5895      1.4328
    55         H          2.6888      3.3364      1.7681
    56         H          3.0551      2.1986      3.0724
    57         H         -0.3583      0.9318     -1.1510
    58         H         -2.0463      0.1191      0.3690
    59         H         -0.9132      0.0119      1.7151
    60         H         -1.5668      1.5827      1.2291
    61         H          5.4812      1.6409     -0.8359
    62         H          3.2880      1.7987     -2.9139
    63         H          4.8022      3.3576     -4.2012
    64         H          4.3470      4.0784     -2.6485
    65         H          5.9585      3.3885     -2.8636
    66         H          6.2286      0.8061     -3.0823
    67         H          5.0297      0.7503     -4.3816
    68         H          4.8077     -0.2321     -2.9244

 General Reference for PM7:
 "Optimization of Parameters for Semiempirical Methods VI: More Modifications to the 
 NDDO Approximations and Re-optimization of Parameters", J. J. P. Stewart, J. Mol. Mod., 1:32, 19 (2013)
 https://link.springer.com/article/10.1007/s00894-012-1667-x

           Empirical Formula: C26 H36 N2 O4  =    68 atoms



      MOLECULAR POINT GROUP   :   C1  


      RHF CALCULATION, NO. OF DOUBLY OCCUPIED LEVELS = 87



          HEAT OF FORMATION =    -160.385098 KCALS/MOLE


          CARTESIAN COORDINATE DERIVATIVES

   NUMBER  ATOM         X            Y            Z

     1       C      1.583774    -5.161526     6.246742
     2       C      0.616515    -4.159410    -0.814645
     3       H     -0.401836     0.751504    -0.813800
     4       H     -0.971048    -0.096111     0.310665
     5       C     -1.158516     5.857398     1.479981
     6       O      0.339461    -5.827171    -1.285003
     7       C      4.826071     0.515067     0.241878
     8       O     -2.904114    -0.802505    -0.510633
     9       C      0.725257     2.573056    -1.785623
    10       C     -0.374977     0.306650     1.463532
    11       C     -0.339310    -1.654713     0.515800
    12       C      0.198652     1.268498     0.148045
    13       C      0.479438    -0.231674    -0.734555
    14       H     -0.171883    -0.561465    -0.306775
    15       C     -0.780360    -0.292624     0.930790
    16       H     -0.360892     0.325333     0.406977
    17       H     -0.161973    -0.208615    -0.125077
    18       H     -0.140253     0.138435     0.063844
    19       C     -0.165170     0.158725    -0.248195
    20       C      0.034480     0.127029    -0.000979
    21       H     -0.183623    -0.188072    -0.302795
    22       H     -0.106523    -0.019898     0.136174
    23       H     -0.365136    -0.164038     0.384460
    24       C      0.000865     0.161993     0.627557
    25       H      0.014164     0.016209    -0.000992
    26       H     -0.010183    -0.123943     0.446377
    27       H     -0.131963     0.115179     0.217183
    28       C      0.289070     0.264180    -0.524151
    29       H      0.371437    -0.041877    -0.094702
    30       H     -0.145350    -0.694561    -0.696440
    31       H     -0.105884    -0.524777     1.226685
    32       N     -1.362873     0.392288    -0.457519
    33       C     -0.650605     0.151105    -4.248564
    34       O      0.143536     1.341739     3.695780
    35       H     -0.217236     0.718174     0.568444
    36       O      0.260493    -1.234584     0.307869
    37       H     -2.099360     6.751945     1.917192
    38       C      0.220710     0.227999     0.245767
    39       C      5.265851    -4.283532     2.299239
    40       C     -4.267558     1.363946     0.522524
    41       C      2.982254    -1.997008    -0.231976
    42       C     -0.004634     0.148218     0.286581
    43       C      0.083681     0.191403     0.038883
    44       C      1.668950     4.507659   -13.094874
    45       C     -0.507854    -0.095469     0.954582
    46       N     -1.831226     0.018012    -0.056790
    47       C      0.407421     0.334827    -0.083559
    48       C     -0.206241    -0.053533    -0.002734
    49       C     -0.036694    -0.040008     0.262844
    50       H     -0.077493    -0.082873     0.002272
    51       H     -0.070941    -0.018117    -0.045929
    52       H      0.075523     0.193543    -0.166107
    53       H      0.062552    -0.073760    -0.058791
    54       H      0.051604     0.045925    -0.206864
    55       H      0.004169    -0.082648     0.051059
    56       H      0.047037    -0.000041    -0.038703
    57       H     -0.137123     0.625187     2.078879
    58       H     -0.088976    -0.068374    -0.024864
    59       H     -0.077172     0.016564     0.058293
    60       H     -0.111091     0.072094    -0.173381
    61       H      0.068127    -1.381149    -0.799813
    62       H      0.135932    -0.076901    -0.078573
    63       H      0.093766     0.060035     0.096828
    64       H      0.029419     0.096808     0.059930
    65       H     -0.044956     0.098964    -0.148545
    66       H     -0.091594     0.084773     0.126385
    67       H     -0.017658     0.140803    -0.058399
    68       H     -0.199583     0.079835    -0.199308
 


          GRADIENT NORM =  24.61096



 ** GRADIENT IS VERY LARGE, BUT SINCE "LET" IS USED, CALCULATION WILL CONTINUE


          TIME FOR SCF CALCULATION =    0.09

          TIME FOR DERIVATIVES     =    0.08

          MOLECULAR WEIGHT =  440.58



          ROTATIONAL CONSTANTS IN CM(-1)

          A =    0.00611263   B =    0.00458257   C =    0.00375672



           PRINCIPAL MOMENTS OF INERTIA IN UNITS OF 10**(-40)*GRAM-CM**2

          A =     4579.4964   B =     6108.5276   C =     7451.3918


          ORIENTATION OF MOLECULE IN FORCE CALCULATION

    NO.       ATOM         X         Y         Z

     1          C      -1.6530    2.4865    0.0577
     2          C      -0.2820    2.4865    0.0577
     3          H      -2.3187    3.3384    0.0577
     4          H       0.3765    3.2758    0.3489
     5          C       0.2046    1.1891   -0.3862
     6          O       1.3329    0.7354   -0.4072
     7          C      -2.1231    1.1707   -0.5240
     8          O      -3.2303    0.7550   -0.7271
     9          C      -0.9172   -0.8293   -1.4551
    10          C      -0.3689   -1.0593   -2.7260
    11          C      -1.4992   -1.8784   -0.7187
    12          C      -0.2767   -2.3991   -3.1358
    13          C      -1.4497   -3.1823   -1.1854
    14          H      -2.0072   -1.6579    0.2207
    15          C      -0.8023   -3.4464   -2.3898
    16          H       0.2229   -2.6367   -4.0751
    17          H      -1.9077   -3.9885   -0.6171
    18          H      -0.7189   -4.4677   -2.7526
    19          C       0.1262   -0.0001   -3.6991
    20          C       1.6479    0.1302   -3.5345
    21          H       1.9142    0.5754   -2.5686
    22          H       2.1410   -0.8482   -3.5753
    23          H       2.0789    0.7631   -4.3142
    24          C      -0.1905   -0.4361   -5.1487
    25          H      -1.2495   -0.6937   -5.2578
    26          H       0.0304    0.3699   -5.8561
    27          H       0.4061   -1.2973   -5.4620
    28          C      -0.5423    1.3719   -3.5158
    29          H      -1.6175    1.2676   -3.3347
    30          H      -0.1031    1.9406   -2.6931
    31          H      -0.4201    1.9958   -4.4059
    32          N      -0.9347    0.4489   -0.8374
    33          C       2.6168   -2.4457   -0.1165
    34          O       2.7209   -2.1468    1.0558
    35          H       2.9261   -3.3924   -0.5581
    36          O       2.0947   -1.6595   -1.0358
    37          H       1.7578   -0.7177   -0.7374
    38          C      -2.2039   -0.2355    2.5419
    39          C      -1.5586    1.1142    2.4480
    40          C      -0.1586    1.2326    2.5874
    41          C       0.6872    0.1364    2.4975
    42          C       0.1029   -1.2426    2.3233
    43          C      -1.2463   -1.3242    3.0386
    44          C      -2.3101    2.2287    2.1203
    45          C      -3.8003    2.1863    2.0324
    46          N       2.0356    0.1883    2.5226
    47          C       2.8158    1.4302    2.6817
    48          C       3.6302    1.3185    3.9805
    49          C       3.7389    1.6156    1.4721
    50          H      -3.0828   -0.1792    3.2203
    51          H      -2.6307   -0.5135    1.5517
    52          H       0.2506    2.2292    2.7193
    53          H       0.7889   -2.0340    2.6952
    54          H      -0.0059   -1.4553    1.2355
    55          H      -1.0931   -1.2149    4.1312
    56          H      -1.6951   -2.3243    2.8915
    57          H      -1.8961    3.2186    2.3182
    58          H      -4.2198    3.1348    1.6753
    59          H      -4.1614    1.4041    1.3463
    60          H      -4.2515    1.9871    3.0145
    61          H       2.5612   -0.6310    2.1924
    62          H       2.1210    2.3090    2.7543
    63          H       4.2257    2.2216    4.1483
    64          H       2.9750    1.1813    4.8491
    65          H       4.3187    0.4665    3.9531
    66          H       4.4572    0.7951    1.3720
    67          H       4.3052    2.5487    1.5466
    68          H       3.1593    1.6534    0.5349


    FIRST DERIVATIVES WILL BE USED IN THE CALCULATION OF SECOND DERIVATIVES

          ESTIMATED TIME TO COMPLETE CALCULATION =       71.72 SECONDS

    FOR POINT-GROUP C1   THERE ARE   1 UNIQUE SYMMETRY FUNCTIONS.

 STEP:   1 TIME =     0.24 SECS, INTEGRAL =      0.24 TIME LEFT: 172799.59
 STEP:   2 TIME =     0.22 SECS, INTEGRAL =      0.46 TIME LEFT: 172799.37
 STEP:   3 TIME =     0.22 SECS, INTEGRAL =      0.68 TIME LEFT: 172799.14
 STEP:   4 TIME =     0.22 SECS, INTEGRAL =      0.90 TIME LEFT: 172798.93
 STEP:   5 TIME =     0.23 SECS, INTEGRAL =      1.13 TIME LEFT: 172798.70
 STEP:   6 TIME =     0.18 SECS, INTEGRAL =      1.30 TIME LEFT: 172798.52
 STEP:   7 TIME =     0.22 SECS, INTEGRAL =      1.52 TIME LEFT: 172798.30
 STEP:   8 TIME =     0.20 SECS, INTEGRAL =      1.72 TIME LEFT: 172798.10
 STEP:   9 TIME =     0.22 SECS, INTEGRAL =      1.94 TIME LEFT: 172797.88
 STEP:  10 TIME =     0.19 SECS, INTEGRAL =      2.13 TIME LEFT: 172797.69
 STEP:  11 TIME =     0.20 SECS, INTEGRAL =      2.33 TIME LEFT: 172797.49
 STEP:  12 TIME =     0.20 SECS, INTEGRAL =      2.54 TIME LEFT: 172797.29
 STEP:  13 TIME =     0.20 SECS, INTEGRAL =      2.73 TIME LEFT: 172797.09
 STEP:  14 TIME =     0.27 SECS, INTEGRAL =      3.00 TIME LEFT: 172796.83
 STEP:  15 TIME =     0.19 SECS, INTEGRAL =      3.19 TIME LEFT: 172796.64
 STEP:  16 TIME =     0.20 SECS, INTEGRAL =      3.39 TIME LEFT: 172796.43
 STEP:  17 TIME =     0.23 SECS, INTEGRAL =      3.62 TIME LEFT: 172796.21
 STEP:  18 TIME =     0.20 SECS, INTEGRAL =      3.81 TIME LEFT: 172796.01
 STEP:  19 TIME =     0.22 SECS, INTEGRAL =      4.03 TIME LEFT: 172795.79
 STEP:  20 TIME =     0.23 SECS, INTEGRAL =      4.27 TIME LEFT: 172795.56
 STEP:  21 TIME =     0.20 SECS, INTEGRAL =      4.47 TIME LEFT: 172795.36
 STEP:  22 TIME =     0.21 SECS, INTEGRAL =      4.68 TIME LEFT: 172795.14
 STEP:  23 TIME =     0.21 SECS, INTEGRAL =      4.90 TIME LEFT: 172794.93
 STEP:  24 TIME =     0.19 SECS, INTEGRAL =      5.09 TIME LEFT: 172794.74
 STEP:  25 TIME =     0.20 SECS, INTEGRAL =      5.29 TIME LEFT: 172794.54
 STEP:  26 TIME =     0.21 SECS, INTEGRAL =      5.50 TIME LEFT: 172794.32
 STEP:  27 TIME =     0.21 SECS, INTEGRAL =      5.71 TIME LEFT: 172794.11
 STEP:  28 TIME =     0.22 SECS, INTEGRAL =      5.93 TIME LEFT: 172793.89
 STEP:  29 TIME =     0.24 SECS, INTEGRAL =      6.18 TIME LEFT: 172793.65
 STEP:  30 TIME =     0.24 SECS, INTEGRAL =      6.42 TIME LEFT: 172793.41
 STEP:  31 TIME =     0.21 SECS, INTEGRAL =      6.62 TIME LEFT: 172793.20
 STEP:  32 TIME =     0.23 SECS, INTEGRAL =      6.85 TIME LEFT: 172792.97
 STEP:  33 TIME =     0.23 SECS, INTEGRAL =      7.09 TIME LEFT: 172792.74
 STEP:  34 TIME =     0.20 SECS, INTEGRAL =      7.29 TIME LEFT: 172792.54
 STEP:  35 TIME =     0.22 SECS, INTEGRAL =      7.50 TIME LEFT: 172792.32
 STEP:  36 TIME =     0.20 SECS, INTEGRAL =      7.71 TIME LEFT: 172792.12
 STEP:  37 TIME =     0.20 SECS, INTEGRAL =      7.91 TIME LEFT: 172791.91
 STEP:  38 TIME =     0.21 SECS, INTEGRAL =      8.12 TIME LEFT: 172791.70
 STEP:  39 TIME =     0.23 SECS, INTEGRAL =      8.36 TIME LEFT: 172791.46
 STEP:  40 TIME =     0.18 SECS, INTEGRAL =      8.54 TIME LEFT: 172791.28
 STEP:  41 TIME =     0.20 SECS, INTEGRAL =      8.74 TIME LEFT: 172791.09
 STEP:  42 TIME =     0.20 SECS, INTEGRAL =      8.94 TIME LEFT: 172790.89
 STEP:  43 TIME =     0.21 SECS, INTEGRAL =      9.15 TIME LEFT: 172790.68
 STEP:  44 TIME =     0.19 SECS, INTEGRAL =      9.34 TIME LEFT: 172790.48
 STEP:  45 TIME =     0.21 SECS, INTEGRAL =      9.55 TIME LEFT: 172790.27
 STEP:  46 TIME =     0.19 SECS, INTEGRAL =      9.74 TIME LEFT: 172790.08
 STEP:  47 TIME =     0.18 SECS, INTEGRAL =      9.92 TIME LEFT: 172789.90
 STEP:  48 TIME =     0.18 SECS, INTEGRAL =     10.10 TIME LEFT: 172789.72
 STEP:  49 TIME =     0.18 SECS, INTEGRAL =     10.28 TIME LEFT: 172789.54
 STEP:  50 TIME =     0.19 SECS, INTEGRAL =     10.47 TIME LEFT: 172789.36
 STEP:  51 TIME =     0.18 SECS, INTEGRAL =     10.64 TIME LEFT: 172789.18
 STEP:  52 TIME =     0.17 SECS, INTEGRAL =     10.82 TIME LEFT: 172789.01
 STEP:  53 TIME =     0.17 SECS, INTEGRAL =     10.99 TIME LEFT: 172788.84
 STEP:  54 TIME =     0.19 SECS, INTEGRAL =     11.18 TIME LEFT: 172788.64
 STEP:  55 TIME =     0.18 SECS, INTEGRAL =     11.36 TIME LEFT: 172788.46
 STEP:  56 TIME =     0.20 SECS, INTEGRAL =     11.56 TIME LEFT: 172788.27
 STEP:  57 TIME =     0.20 SECS, INTEGRAL =     11.76 TIME LEFT: 172788.07
 STEP:  58 TIME =     0.21 SECS, INTEGRAL =     11.96 TIME LEFT: 172787.86
 STEP:  59 TIME =     0.18 SECS, INTEGRAL =     12.14 TIME LEFT: 172787.68
 STEP:  60 TIME =     0.20 SECS, INTEGRAL =     12.35 TIME LEFT: 172787.48
 STEP:  61 TIME =     0.19 SECS, INTEGRAL =     12.54 TIME LEFT: 172787.29
 STEP:  62 TIME =     0.20 SECS, INTEGRAL =     12.73 TIME LEFT: 172787.09
 STEP:  63 TIME =     0.18 SECS, INTEGRAL =     12.91 TIME LEFT: 172786.91
 STEP:  64 TIME =     0.18 SECS, INTEGRAL =     13.09 TIME LEFT: 172786.73
 STEP:  65 TIME =     0.18 SECS, INTEGRAL =     13.28 TIME LEFT: 172786.55
 STEP:  66 TIME =     0.16 SECS, INTEGRAL =     13.44 TIME LEFT: 172786.38
 STEP:  67 TIME =     0.17 SECS, INTEGRAL =     13.61 TIME LEFT: 172786.21
 STEP:  68 TIME =     0.20 SECS, INTEGRAL =     13.80 TIME LEFT: 172786.02
 STEP:  69 TIME =     0.17 SECS, INTEGRAL =     13.98 TIME LEFT: 172785.85
 STEP:  70 TIME =     0.20 SECS, INTEGRAL =     14.17 TIME LEFT: 172785.65
 STEP:  71 TIME =     0.19 SECS, INTEGRAL =     14.36 TIME LEFT: 172785.46
 STEP:  72 TIME =     0.18 SECS, INTEGRAL =     14.54 TIME LEFT: 172785.28
 STEP:  73 TIME =     0.20 SECS, INTEGRAL =     14.74 TIME LEFT: 172785.08
 STEP:  74 TIME =     0.20 SECS, INTEGRAL =     14.94 TIME LEFT: 172784.89
 STEP:  75 TIME =     0.18 SECS, INTEGRAL =     15.12 TIME LEFT: 172784.70
 STEP:  76 TIME =     0.18 SECS, INTEGRAL =     15.30 TIME LEFT: 172784.52
 STEP:  77 TIME =     0.18 SECS, INTEGRAL =     15.48 TIME LEFT: 172784.34
 STEP:  78 TIME =     0.19 SECS, INTEGRAL =     15.68 TIME LEFT: 172784.15
 STEP:  79 TIME =     0.17 SECS, INTEGRAL =     15.84 TIME LEFT: 172783.98
 STEP:  80 TIME =     0.17 SECS, INTEGRAL =     16.01 TIME LEFT: 172783.81
 STEP:  81 TIME =     0.16 SECS, INTEGRAL =     16.17 TIME LEFT: 172783.66
 STEP:  82 TIME =     0.18 SECS, INTEGRAL =     16.35 TIME LEFT: 172783.47
 STEP:  83 TIME =     0.16 SECS, INTEGRAL =     16.51 TIME LEFT: 172783.31
 STEP:  84 TIME =     0.17 SECS, INTEGRAL =     16.68 TIME LEFT: 172783.14
 STEP:  85 TIME =     0.19 SECS, INTEGRAL =     16.88 TIME LEFT: 172782.95
 STEP:  86 TIME =     0.18 SECS, INTEGRAL =     17.05 TIME LEFT: 172782.77
 STEP:  87 TIME =     0.18 SECS, INTEGRAL =     17.23 TIME LEFT: 172782.59
 STEP:  88 TIME =     0.18 SECS, INTEGRAL =     17.41 TIME LEFT: 172782.41
 STEP:  89 TIME =     0.16 SECS, INTEGRAL =     17.58 TIME LEFT: 172782.25
 STEP:  90 TIME =     0.15 SECS, INTEGRAL =     17.73 TIME LEFT: 172782.09
 STEP:  91 TIME =     0.19 SECS, INTEGRAL =     17.92 TIME LEFT: 172781.90
 STEP:  92 TIME =     0.15 SECS, INTEGRAL =     18.07 TIME LEFT: 172781.75
 STEP:  93 TIME =     0.19 SECS, INTEGRAL =     18.26 TIME LEFT: 172781.56
 STEP:  94 TIME =     0.20 SECS, INTEGRAL =     18.46 TIME LEFT: 172781.36
 STEP:  95 TIME =     0.22 SECS, INTEGRAL =     18.69 TIME LEFT: 172781.14
 STEP:  96 TIME =     0.20 SECS, INTEGRAL =     18.89 TIME LEFT: 172780.94
 STEP:  97 TIME =     0.18 SECS, INTEGRAL =     19.07 TIME LEFT: 172780.75
 STEP:  98 TIME =     0.19 SECS, INTEGRAL =     19.26 TIME LEFT: 172780.57
 STEP:  99 TIME =     0.19 SECS, INTEGRAL =     19.45 TIME LEFT: 172780.38
 STEP: 100 TIME =     0.19 SECS, INTEGRAL =     19.63 TIME LEFT: 172780.19
 STEP: 101 TIME =     0.20 SECS, INTEGRAL =     19.83 TIME LEFT: 172780.00
 STEP: 102 TIME =     0.19 SECS, INTEGRAL =     20.02 TIME LEFT: 172779.80
 STEP: 103 TIME =     0.21 SECS, INTEGRAL =     20.23 TIME LEFT: 172779.59
 STEP: 104 TIME =     0.20 SECS, INTEGRAL =     20.43 TIME LEFT: 172779.40
 STEP: 105 TIME =     0.18 SECS, INTEGRAL =     20.60 TIME LEFT: 172779.22
 STEP: 106 TIME =     0.19 SECS, INTEGRAL =     20.79 TIME LEFT: 172779.03
 STEP: 107 TIME =     0.17 SECS, INTEGRAL =     20.96 TIME LEFT: 172778.86
 STEP: 108 TIME =     0.18 SECS, INTEGRAL =     21.14 TIME LEFT: 172778.68
 STEP: 109 TIME =     0.17 SECS, INTEGRAL =     21.31 TIME LEFT: 172778.51
 STEP: 110 TIME =     0.21 SECS, INTEGRAL =     21.52 TIME LEFT: 172778.30
 STEP: 111 TIME =     0.20 SECS, INTEGRAL =     21.72 TIME LEFT: 172778.11
 STEP: 112 TIME =     0.18 SECS, INTEGRAL =     21.90 TIME LEFT: 172777.92
 STEP: 113 TIME =     0.16 SECS, INTEGRAL =     22.07 TIME LEFT: 172777.76
 STEP: 114 TIME =     0.18 SECS, INTEGRAL =     22.25 TIME LEFT: 172777.57
 STEP: 115 TIME =     0.22 SECS, INTEGRAL =     22.47 TIME LEFT: 172777.36
 STEP: 116 TIME =     0.20 SECS, INTEGRAL =     22.66 TIME LEFT: 172777.16
 STEP: 117 TIME =     0.18 SECS, INTEGRAL =     22.84 TIME LEFT: 172776.98
 STEP: 118 TIME =     0.23 SECS, INTEGRAL =     23.07 TIME LEFT: 172776.75
 STEP: 119 TIME =     0.21 SECS, INTEGRAL =     23.28 TIME LEFT: 172776.54
 STEP: 120 TIME =     0.21 SECS, INTEGRAL =     23.50 TIME LEFT: 172776.33
 STEP: 121 TIME =     0.22 SECS, INTEGRAL =     23.72 TIME LEFT: 172776.11
 STEP: 122 TIME =     0.19 SECS, INTEGRAL =     23.91 TIME LEFT: 172775.91
 STEP: 123 TIME =     0.19 SECS, INTEGRAL =     24.10 TIME LEFT: 172775.73
 STEP: 124 TIME =     0.19 SECS, INTEGRAL =     24.29 TIME LEFT: 172775.54
 STEP: 125 TIME =     0.18 SECS, INTEGRAL =     24.46 TIME LEFT: 172775.36
 STEP: 126 TIME =     0.16 SECS, INTEGRAL =     24.62 TIME LEFT: 172775.21
 STEP: 127 TIME =     0.18 SECS, INTEGRAL =     24.79 TIME LEFT: 172775.03
 STEP: 128 TIME =     0.17 SECS, INTEGRAL =     24.96 TIME LEFT: 172774.86
 STEP: 129 TIME =     0.16 SECS, INTEGRAL =     25.12 TIME LEFT: 172774.70
 STEP: 130 TIME =     0.18 SECS, INTEGRAL =     25.30 TIME LEFT: 172774.53
 STEP: 131 TIME =     0.18 SECS, INTEGRAL =     25.48 TIME LEFT: 172774.34
 STEP: 132 TIME =     0.21 SECS, INTEGRAL =     25.69 TIME LEFT: 172774.13
 STEP: 133 TIME =     0.18 SECS, INTEGRAL =     25.87 TIME LEFT: 172773.95
 STEP: 134 TIME =     0.18 SECS, INTEGRAL =     26.05 TIME LEFT: 172773.78
 STEP: 135 TIME =     0.17 SECS, INTEGRAL =     26.21 TIME LEFT: 172773.61
 STEP: 136 TIME =     0.21 SECS, INTEGRAL =     26.43 TIME LEFT: 172773.39
 STEP: 137 TIME =     0.19 SECS, INTEGRAL =     26.62 TIME LEFT: 172773.21
 STEP: 138 TIME =     0.17 SECS, INTEGRAL =     26.79 TIME LEFT: 172773.04
 STEP: 139 TIME =     0.19 SECS, INTEGRAL =     26.98 TIME LEFT: 172772.84
 STEP: 140 TIME =     0.17 SECS, INTEGRAL =     27.15 TIME LEFT: 172772.67
 STEP: 141 TIME =     0.18 SECS, INTEGRAL =     27.33 TIME LEFT: 172772.50
 STEP: 142 TIME =     0.17 SECS, INTEGRAL =     27.50 TIME LEFT: 172772.32
 STEP: 143 TIME =     0.18 SECS, INTEGRAL =     27.68 TIME LEFT: 172772.14
 STEP: 144 TIME =     0.18 SECS, INTEGRAL =     27.87 TIME LEFT: 172771.96
 STEP: 145 TIME =     0.20 SECS, INTEGRAL =     28.06 TIME LEFT: 172771.76
 STEP: 146 TIME =     0.17 SECS, INTEGRAL =     28.23 TIME LEFT: 172771.59
 STEP: 147 TIME =     0.20 SECS, INTEGRAL =     28.43 TIME LEFT: 172771.40
 STEP: 148 TIME =     0.21 SECS, INTEGRAL =     28.64 TIME LEFT: 172771.18
 STEP: 149 TIME =     0.18 SECS, INTEGRAL =     28.82 TIME LEFT: 172771.00
 STEP: 150 TIME =     0.20 SECS, INTEGRAL =     29.02 TIME LEFT: 172770.80
 STEP: 151 TIME =     0.19 SECS, INTEGRAL =     29.21 TIME LEFT: 172770.61
 STEP: 152 TIME =     0.21 SECS, INTEGRAL =     29.43 TIME LEFT: 172770.40
 STEP: 153 TIME =     0.20 SECS, INTEGRAL =     29.62 TIME LEFT: 172770.20
 STEP: 154 TIME =     0.19 SECS, INTEGRAL =     29.81 TIME LEFT: 172770.01
 STEP: 155 TIME =     0.20 SECS, INTEGRAL =     30.01 TIME LEFT: 172769.82
 STEP: 156 TIME =     0.19 SECS, INTEGRAL =     30.20 TIME LEFT: 172769.62
 STEP: 157 TIME =     0.18 SECS, INTEGRAL =     30.38 TIME LEFT: 172769.45
 STEP: 158 TIME =     0.21 SECS, INTEGRAL =     30.59 TIME LEFT: 172769.24
 STEP: 159 TIME =     0.19 SECS, INTEGRAL =     30.77 TIME LEFT: 172769.05
 STEP: 160 TIME =     0.19 SECS, INTEGRAL =     30.96 TIME LEFT: 172768.86
 STEP: 161 TIME =     0.17 SECS, INTEGRAL =     31.13 TIME LEFT: 172768.70
 STEP: 162 TIME =     0.17 SECS, INTEGRAL =     31.30 TIME LEFT: 172768.53
 STEP: 163 TIME =     0.16 SECS, INTEGRAL =     31.46 TIME LEFT: 172768.36
 STEP: 164 TIME =     0.18 SECS, INTEGRAL =     31.64 TIME LEFT: 172768.18
 STEP: 165 TIME =     0.16 SECS, INTEGRAL =     31.80 TIME LEFT: 172768.02
 STEP: 166 TIME =     0.19 SECS, INTEGRAL =     31.99 TIME LEFT: 172767.83
 STEP: 167 TIME =     0.20 SECS, INTEGRAL =     32.19 TIME LEFT: 172767.64
 STEP: 168 TIME =     0.18 SECS, INTEGRAL =     32.36 TIME LEFT: 172767.46
 STEP: 169 TIME =     0.18 SECS, INTEGRAL =     32.55 TIME LEFT: 172767.28
 STEP: 170 TIME =     0.21 SECS, INTEGRAL =     32.75 TIME LEFT: 172767.07
 STEP: 171 TIME =     0.20 SECS, INTEGRAL =     32.95 TIME LEFT: 172766.87
 STEP: 172 TIME =     0.19 SECS, INTEGRAL =     33.14 TIME LEFT: 172766.68
 STEP: 173 TIME =     0.20 SECS, INTEGRAL =     33.34 TIME LEFT: 172766.49
 STEP: 174 TIME =     0.19 SECS, INTEGRAL =     33.53 TIME LEFT: 172766.30
 STEP: 175 TIME =     0.19 SECS, INTEGRAL =     33.71 TIME LEFT: 172766.11
 STEP: 176 TIME =     0.16 SECS, INTEGRAL =     33.87 TIME LEFT: 172765.95
 STEP: 177 TIME =     0.18 SECS, INTEGRAL =     34.05 TIME LEFT: 172765.77
 STEP: 178 TIME =     0.21 SECS, INTEGRAL =     34.26 TIME LEFT: 172765.56
 STEP: 179 TIME =     0.19 SECS, INTEGRAL =     34.45 TIME LEFT: 172765.38
 STEP: 180 TIME =     0.19 SECS, INTEGRAL =     34.64 TIME LEFT: 172765.18
 STEP: 181 TIME =     0.19 SECS, INTEGRAL =     34.83 TIME LEFT: 172764.99
 STEP: 182 TIME =     0.20 SECS, INTEGRAL =     35.03 TIME LEFT: 172764.80
 STEP: 183 TIME =     0.21 SECS, INTEGRAL =     35.23 TIME LEFT: 172764.59
 STEP: 184 TIME =     0.18 SECS, INTEGRAL =     35.41 TIME LEFT: 172764.41
 STEP: 185 TIME =     0.19 SECS, INTEGRAL =     35.60 TIME LEFT: 172764.23
 STEP: 186 TIME =     0.18 SECS, INTEGRAL =     35.77 TIME LEFT: 172764.05
 STEP: 187 TIME =     0.18 SECS, INTEGRAL =     35.95 TIME LEFT: 172763.88
 STEP: 188 TIME =     0.18 SECS, INTEGRAL =     36.13 TIME LEFT: 172763.69
 STEP: 189 TIME =     0.18 SECS, INTEGRAL =     36.31 TIME LEFT: 172763.51
 STEP: 190 TIME =     0.20 SECS, INTEGRAL =     36.51 TIME LEFT: 172763.32
 STEP: 191 TIME =     0.19 SECS, INTEGRAL =     36.70 TIME LEFT: 172763.13
 STEP: 192 TIME =     0.19 SECS, INTEGRAL =     36.89 TIME LEFT: 172762.94
 STEP: 193 TIME =     0.18 SECS, INTEGRAL =     37.07 TIME LEFT: 172762.75
 STEP: 194 TIME =     0.20 SECS, INTEGRAL =     37.27 TIME LEFT: 172762.55
 STEP: 195 TIME =     0.20 SECS, INTEGRAL =     37.46 TIME LEFT: 172762.36
 STEP: 196 TIME =     0.19 SECS, INTEGRAL =     37.66 TIME LEFT: 172762.17
 STEP: 197 TIME =     0.19 SECS, INTEGRAL =     37.85 TIME LEFT: 172761.98
 STEP: 198 TIME =     0.18 SECS, INTEGRAL =     38.03 TIME LEFT: 172761.79
 STEP: 199 TIME =     0.21 SECS, INTEGRAL =     38.24 TIME LEFT: 172761.59
 STEP: 200 TIME =     0.21 SECS, INTEGRAL =     38.45 TIME LEFT: 172761.38
 STEP: 201 TIME =     0.17 SECS, INTEGRAL =     38.62 TIME LEFT: 172761.21
 STEP: 202 TIME =     0.20 SECS, INTEGRAL =     38.82 TIME LEFT: 172761.01
 STEP: 203 TIME =     0.19 SECS, INTEGRAL =     39.00 TIME LEFT: 172760.82
 STEP: 204 TIME =     0.20 SECS, INTEGRAL =     39.20 TIME LEFT: 172760.62

(To convert to Hartree/Bohr^2, multiply by (10^(-21) x N x a0^2)/(4.184 x 627.51) =  0.0642)


           FORCE MATRIX IN MILLIDYNES/ANGSTROM


                  C  1       C  2       H  3       H  4       C  5       O  6
 ------------------------------------------------------------------------------
     C    1  14.081994
     C    2   7.491984  14.974063
     H    3   3.492749   0.695868   4.297751
     H    4   0.746651   3.598115   0.027887   4.459788
     C    5   2.252958   3.784820   0.165947   0.634554  18.227236
     O    6   0.462863   1.501575   0.052859   0.034966  10.667602  12.835174
     C    7   2.789273   1.241409   0.572963   0.111862   1.989956   0.279676
     O    8   1.026147   0.200337   0.034429   0.016550   0.373455   0.095221
     C    9   0.142091   0.121360   0.015870   0.013715   0.752884   0.112272
     C   10   0.023792   0.018945   0.003426   0.001710   0.084944   0.029456
     C   11   0.027643   0.028766   0.002609   0.002840   0.090463   0.027705
     C   12   0.010080   0.007686   0.001536   0.001411   0.046671   0.022698
     C   13   0.014459   0.013536   0.001975   0.001391   0.028894   0.011467
     H   14   0.032261   0.030025   0.002767   0.001943   0.039991   0.014085
     C   15   0.009689   0.011668   0.001514   0.000655   0.036377   0.012676
     H   16   0.002364   0.002893   0.000696   0.000704   0.013600   0.008965
     H   17   0.009577   0.009381   0.000869   0.000542   0.012670   0.004025
     H   18   0.006718   0.007897   0.001090   0.000781   0.016877   0.006510
     C   19   0.026848   0.028582   0.003149   0.004103   0.082164   0.040532
     C   20   0.037828   0.044919   0.004203   0.005406   0.115144   0.106213
     H   21   0.021147   0.027099   0.002377   0.002747   0.106671   0.054657
     H   22   0.007826   0.009503   0.001099   0.000953   0.024467   0.021216
     H   23   0.007812   0.009132   0.000785   0.001252   0.016029   0.009875
     C   24   0.020205   0.022105   0.002648   0.002775   0.046287   0.024040
     H   25   0.003559   0.004322   0.000601   0.000739   0.010798   0.005054
     H   26   0.003837   0.004324   0.000566   0.000583   0.007313   0.004221
     H   27   0.003463   0.003372   0.000589   0.000598   0.008363   0.004981
     C   28   0.053854   0.063059   0.005868   0.007594   0.089729   0.044191
     H   29   0.015920   0.016182   0.002480   0.001843   0.033158   0.011534
     H   30   0.032848   0.028573   0.003123   0.005155   0.115894   0.021225
     H   31   0.008247   0.009541   0.001071   0.001669   0.013182   0.006153
     N   32   1.228970   1.473157   0.066735   0.056564   3.596630   1.682579
     C   33   0.189369   0.204608   0.019002   0.005633   0.317944   0.430246
     O   34   0.115653   0.113192   0.011580   0.005341   0.156568   0.184579
     H   35   0.014784   0.017288   0.001647   0.000676   0.033257   0.048239
     O   36   0.168578   0.205688   0.016787   0.006254   0.424840   0.873783
     H   37   0.200810   0.278067   0.021220   0.010372   0.812256   0.663447
     C   38   0.078782   0.056741   0.010481   0.005399   0.073848   0.017505
     C   39   1.510612   1.049520   0.149890   0.088096   0.916791   0.434416
     C   40   1.044962   0.854533   0.114393   0.073440   0.822573   0.456537
     C   41   0.832985   0.715311   0.087288   0.067213   0.775419   0.480822
     C   42   0.068123   0.064152   0.006959   0.004815   0.089787   0.056995


                  C  1       C  2       H  3       H  4       C  5       O  6
 ------------------------------------------------------------------------------
     C   43   0.032277   0.027336   0.002736   0.002188   0.027919   0.011473
     C   44   1.676224   1.365749   0.469682   0.103976   1.060791   0.420721
     C   45   0.209812   0.054708   0.019671   0.006235   0.056837   0.017037
     N   46   0.455930   0.388235   0.045875   0.041294   0.428885   0.281176
     C   47   0.112531   0.094155   0.011460   0.015943   0.103029   0.063799
     C   48   0.058429   0.048581   0.006633   0.008465   0.054578   0.033670
     C   49   0.074488   0.072704   0.007998   0.015440   0.116525   0.109662
     H   50   0.019865   0.014441   0.002680   0.001366   0.014417   0.003800
     H   51   0.040561   0.030661   0.004240   0.001784   0.043948   0.010190
     H   52   0.082261   0.067122   0.010259   0.021749   0.047849   0.018052
     H   53   0.022833   0.020064   0.002317   0.001402   0.024487   0.020051
     H   54   0.041733   0.039700   0.003980   0.002067   0.066730   0.036173
     H   55   0.014592   0.011809   0.001587   0.001433   0.010677   0.004996
     H   56   0.009234   0.007928   0.000909   0.000772   0.009969   0.003849
     H   57   0.364305   0.103457   0.036632   0.013412   0.098764   0.041798
     H   58   0.017084   0.012680   0.016963   0.001915   0.011584   0.006074
     H   59   0.030549   0.022597   0.008847   0.001607   0.027692   0.007265
     H   60   0.024655   0.011582   0.002237   0.001374   0.011519   0.005263
     H   61   0.078033   0.068941   0.007700   0.005875   0.094429   0.089924
     H   62   0.017352   0.017154   0.002118   0.006238   0.015341   0.009498
     H   63   0.007061   0.005751   0.000992   0.001831   0.007833   0.005347
     H   64   0.014643   0.011965   0.001682   0.001584   0.012265   0.007081
     H   65   0.012135   0.009937   0.001380   0.001252   0.010582   0.007292
     H   66   0.008810   0.008642   0.001257   0.001560   0.022601   0.020117
     H   67   0.010061   0.010545   0.001267   0.004323   0.015450   0.010579
     H   68   0.045426   0.048627   0.004406   0.007703   0.098979   0.053559


                  C  7       O  8       C  9       C 10       C 11       C 12
 ------------------------------------------------------------------------------
     C    7  18.384389
     O    8  12.159960  14.172110
     C    9   0.781975   0.085766  15.876999
     C   10   0.083268   0.021903   5.537000  15.132288
     C   11   0.076327   0.025829   5.300866   2.240147  15.179868
     C   12   0.037697   0.011432   2.325863   5.535852   1.727871  15.068509
     C   13   0.027255   0.012183   2.308064   1.679443   6.400789   2.441620
     H   14   0.060117   0.025935   0.750262   0.084088   3.400735   0.023589
     C   15   0.033764   0.011776   1.693074   2.278856   2.433848   6.206856
     H   16   0.007573   0.003463   0.094413   0.741128   0.027904   3.424719
     H   17   0.010836   0.005212   0.097649   0.011679   0.758942   0.088411
     H   18   0.012394   0.004327   0.012821   0.094243   0.089464   0.758720
     C   19   0.047663   0.017505   0.603141   3.031460   0.083384   0.752549
     C   20   0.037928   0.015549   0.037628   0.688421   0.015135   0.049216
     H   21   0.016854   0.008006   0.011892   0.022372   0.003000   0.005289
     H   22   0.008977   0.003621   0.006870   0.043740   0.002363   0.008825
     H   23   0.004243   0.001750   0.005827   0.044999   0.002664   0.002713
     C   24   0.030633   0.012766   0.044099   0.652739   0.016622   0.124811
     H   25   0.010928   0.005966   0.006655   0.030694   0.002901   0.010179
     H   26   0.004759   0.002084   0.006251   0.046532   0.002002   0.003633
     H   27   0.005767   0.002279   0.005839   0.015917   0.002795   0.061712
     C   28   0.071889   0.032552   0.025202   0.581295   0.005883   0.041924
     H   29   0.047576   0.019766   0.025400   0.025418   0.002519   0.006680
     H   30   0.034816   0.009636   0.020535   0.009281   0.003232   0.004661
     H   31   0.009899   0.004389   0.002485   0.043978   0.001581   0.005729
     N   32   3.698664   1.822370   4.964776   0.948506   1.162132   0.129319
     C   33   0.090283   0.023988   0.029328   0.012146   0.019909   0.016384
     O   34   0.050188   0.013871   0.026399   0.008355   0.013943   0.010587
     H   35   0.006625   0.002397   0.002421   0.001563   0.001611   0.001257
     O   36   0.088753   0.031327   0.035267   0.017972   0.016608   0.014349
     H   37   0.092024   0.039541   0.072574   0.020535   0.015741   0.014379
     C   38   0.068206   0.044558   0.015099   0.002446   0.027444   0.001818
     C   39   0.270696   0.125903   0.068787   0.019197   0.026420   0.004635
     C   40   0.253468   0.092919   0.066153   0.020032   0.019792   0.005165
     C   41   0.222241   0.088049   0.069688   0.021311   0.023327   0.006597
     C   42   0.043932   0.011957   0.017286   0.004459   0.048276   0.003129
     C   43   0.013917   0.007636   0.008305   0.001296   0.008029   0.000699
     C   44   0.300510   0.142359   0.073114   0.018993   0.026160   0.004215
     C   45   0.099624   0.083686   0.009264   0.002860   0.003751   0.001744
     N   46   0.120510   0.052628   0.043432   0.013426   0.010990   0.005081
     C   47   0.032156   0.016155   0.011276   0.003517   0.003716   0.002704
     C   48   0.018131   0.008793   0.007337   0.002238   0.002281   0.001659
     C   49   0.025332   0.012916   0.010652   0.003030   0.002768   0.002338
     H   50   0.016574   0.009554   0.002527   0.000887   0.002418   0.000582
     H   51   0.074250   0.035197   0.011347   0.001912   0.031430   0.001450
     H   52   0.015950   0.006155   0.003719   0.001141   0.001628   0.000840


                  C  7       O  8       C  9       C 10       C 11       C 12
 ------------------------------------------------------------------------------
     H   53   0.008276   0.002916   0.005027   0.001304   0.004482   0.001015
     H   54   0.031436   0.008408   0.023948   0.003681   0.026528   0.002104
     H   55   0.004656   0.002693   0.002188   0.000807   0.001589   0.000389
     H   56   0.006280   0.003751   0.004333   0.000639   0.004688   0.001078
     H   57   0.025797   0.015392   0.008245   0.002520   0.002115   0.000884
     H   58   0.026261   0.013980   0.003105   0.000909   0.000745   0.000504
     H   59   0.102417   0.051377   0.005221   0.001631   0.002392   0.000886
     H   60   0.011654   0.007630   0.001860   0.000891   0.001119   0.000354
     H   61   0.032229   0.012684   0.015396   0.004497   0.005327   0.002386
     H   62   0.004601   0.001873   0.001522   0.000643   0.000674   0.000229
     H   63   0.003499   0.002029   0.001258   0.000369   0.000446   0.000396
     H   64   0.004457   0.002251   0.001518   0.000429   0.000369   0.000291
     H   65   0.004316   0.002248   0.001956   0.000568   0.000560   0.000369
     H   66   0.005630   0.002888   0.003050   0.000764   0.000801   0.000524
     H   67   0.003572   0.002159   0.001399   0.000423   0.000515   0.000548
     H   68   0.015193   0.005935   0.005187   0.001238   0.001424   0.000754


                  C 13       H 14       C 15       H 16       H 17       H 18
 ------------------------------------------------------------------------------
     C   13  15.475688
     H   14   0.765356   4.312972
     C   15   6.109009   0.096368  15.379438
     H   16   0.095752   0.010958   0.788353   4.364424
     H   17   3.477861   0.035406   0.746526   0.008289   4.393535
     H   18   0.752088   0.008081   3.481318   0.036881   0.030536   4.399635
     C   19   0.014703   0.008037   0.085799   0.054126   0.012898   0.008587
     C   20   0.009773   0.004188   0.012256   0.014293   0.004898   0.003238
     H   21   0.002490   0.001851   0.001684   0.002972   0.001339   0.001254
     H   22   0.002326   0.001461   0.002275   0.010437   0.001456   0.001648
     H   23   0.000897   0.000602   0.002526   0.003191   0.000462   0.000399
     C   24   0.011961   0.004679   0.006314   0.086080   0.004019   0.005237
     H   25   0.002297   0.001681   0.001655   0.015710   0.001563   0.001860
     H   26   0.001538   0.000345   0.001973   0.002768   0.000428   0.000549
     H   27   0.001812   0.001712   0.001780   0.040084   0.001306   0.002089
     C   28   0.005914   0.004545   0.012720   0.010062   0.003569   0.003151
     H   29   0.002358   0.001645   0.002008   0.002303   0.001354   0.001178
     H   30   0.001622   0.001672   0.001521   0.001585   0.000968   0.001053
     H   31   0.000778   0.000721   0.001557   0.001845   0.000620   0.000524
     N   32   0.117504   0.065812   0.025463   0.017972   0.015920   0.020965
     C   33   0.009699   0.015878   0.012420   0.013066   0.012860   0.010467
     O   34   0.005703   0.010622   0.006761   0.007915   0.006568   0.005547
     H   35   0.000835   0.000902   0.002006   0.001364   0.000814   0.001899
     O   36   0.012002   0.010534   0.014948   0.010281   0.010281   0.011015
     H   37   0.011874   0.008373   0.012720   0.008527   0.004700   0.007743
     C   38   0.003818   0.026027   0.002370   0.001966   0.003025   0.001359
     C   39   0.009722   0.031984   0.011417   0.002101   0.007898   0.005536
     C   40   0.008728   0.016737   0.011008   0.003087   0.006866   0.005762
     C   41   0.009533   0.017188   0.011378   0.004702   0.006319   0.006735
     C   42   0.004915   0.008303   0.003805   0.003052   0.004439   0.002452
     C   43   0.002396   0.005402   0.002140   0.001155   0.003195   0.000834
     C   44   0.011162   0.033881   0.011907   0.001567   0.008716   0.005976
     C   45   0.001922   0.004822   0.001865   0.001591   0.001507   0.001731
     N   46   0.005816   0.007410   0.007106   0.003860   0.003642   0.004930
     C   47   0.001689   0.002230   0.002459   0.002241   0.001309   0.002175
     C   48   0.000932   0.001660   0.001369   0.001236   0.000801   0.001220
     C   49   0.001861   0.001859   0.002567   0.001945   0.001609   0.002040
     H   50   0.000842   0.003495   0.000807   0.000741   0.000943   0.000606
     H   51   0.002948   0.039133   0.001712   0.001088   0.002147   0.000807
     H   52   0.000730   0.000918   0.000560   0.000656   0.000343   0.000597
     H   53   0.001989   0.003859   0.001401   0.000892   0.001862   0.001166
     H   54   0.004723   0.028939   0.003952   0.001836   0.003834   0.001263
     H   55   0.000750   0.001548   0.000920   0.000599   0.000778   0.000435
     H   56   0.001761   0.009407   0.001281   0.000722   0.002978   0.000635
     H   57   0.001354   0.002892   0.001344   0.000640   0.000901   0.000827
     H   58   0.000643   0.000583   0.000574   0.000472   0.000408   0.000468


                  C 13       H 14       C 15       H 16       H 17       H 18
 ------------------------------------------------------------------------------
     H   59   0.000973   0.003310   0.000857   0.000750   0.000734   0.000764
     H   60   0.000719   0.001505   0.000542   0.000376   0.000422   0.000475
     H   61   0.002256   0.003904   0.002654   0.001881   0.001590   0.001932
     H   62   0.000243   0.000368   0.000285   0.000224   0.000175   0.000276
     H   63   0.000203   0.000355   0.000389   0.000291   0.000185   0.000259
     H   64   0.000382   0.000388   0.000323   0.000250   0.000250   0.000245
     H   65   0.000295   0.000381   0.000410   0.000259   0.000225   0.000317
     H   66   0.000427   0.000497   0.000645   0.000487   0.000406   0.000481
     H   67   0.000287   0.000313   0.000546   0.000387   0.000364   0.000424
     H   68   0.001000   0.000918   0.001083   0.000658   0.000848   0.000942


                  C 19       C 20       H 21       H 22       H 23       C 24
 ------------------------------------------------------------------------------
     C   19  12.840479
     C   20   2.831585  11.217204
     H   21   0.669760   3.401202   4.216942
     H   22   0.671621   3.429409   0.463966   4.218248
     H   23   0.690593   3.451711   0.466952   0.464385   4.246045
     C   24   2.643776   0.709346   0.045708   0.010393   0.015723  11.225967
     H   25   0.667339   0.046289   0.007997   0.002255   0.002852   3.440519
     H   26   0.672808   0.011039   0.002874   0.005181   0.017046   3.434783
     H   27   0.650831   0.014428   0.003176   0.016568   0.010403   3.426009
     C   28   2.847341   0.696945   0.014724   0.045663   0.011255   0.780165
     H   29   0.678397   0.044269   0.003248   0.007794   0.002116   0.012722
     H   30   0.666829   0.021624   0.024368   0.003216   0.009356   0.042266
     H   31   0.683632   0.011910   0.005680   0.001846   0.011218   0.056556
     N   32   0.072798   0.059717   0.033947   0.011414   0.007445   0.035434
     C   33   0.023678   0.071385   0.034845   0.035992   0.007317   0.020945
     O   34   0.013910   0.041156   0.018201   0.020138   0.003835   0.012438
     H   35   0.001793   0.005994   0.002401   0.002517   0.000596   0.002032
     O   36   0.021325   0.072568   0.022550   0.027409   0.006702   0.018971
     H   37   0.018021   0.044768   0.034900   0.023384   0.005597   0.013382
     C   38   0.003461   0.003417   0.001630   0.000761   0.000683   0.003186
     C   39   0.020713   0.028081   0.014470   0.006922   0.005508   0.015556
     C   40   0.017882   0.024946   0.012377   0.007165   0.004639   0.013961
     C   41   0.017241   0.024705   0.012545   0.008208   0.004214   0.014059
     C   42   0.005176   0.006040   0.002631   0.002038   0.000784   0.004385
     C   43   0.001876   0.002456   0.001125   0.000665   0.000443   0.001997
     C   44   0.022782   0.031596   0.017459   0.007029   0.006393   0.017072
     C   45   0.002617   0.003054   0.001557   0.000630   0.000861   0.002319
     N   46   0.010494   0.016257   0.008337   0.005876   0.002700   0.009347
     C   47   0.004091   0.006919   0.003447   0.001563   0.001586   0.003886
     C   48   0.002195   0.003706   0.002313   0.001054   0.000824   0.002163
     C   49   0.004128   0.010114   0.005843   0.002947   0.002368   0.003731
     H   50   0.000893   0.001442   0.000585   0.000351   0.000331   0.000975
     H   51   0.001894   0.001990   0.000846   0.000517   0.000371   0.002146
     H   52   0.001437   0.001671   0.000782   0.000402   0.000473   0.001258
     H   53   0.001555   0.002469   0.001099   0.000884   0.000334   0.001395
     H   54   0.003201   0.004144   0.001842   0.001316   0.000359   0.003852
     H   55   0.000855   0.001063   0.000438   0.000271   0.000233   0.000892
     H   56   0.001594   0.001345   0.000533   0.000367   0.000227   0.001127
     H   57   0.002101   0.003250   0.001739   0.000800   0.000614   0.001864
     H   58   0.001059   0.001323   0.000557   0.000254   0.000326   0.000881
     H   59   0.001206   0.001409   0.000635   0.000352   0.000352   0.001236
     H   60   0.000678   0.000984   0.000420   0.000220   0.000217   0.000602
     H   61   0.004036   0.009739   0.004401   0.004216   0.000928   0.003168
     H   62   0.000583   0.000861   0.000454   0.000361   0.000167   0.000524
     H   63   0.000557   0.001023   0.000528   0.000271   0.000216   0.000518
     H   64   0.000607   0.000952   0.000476   0.000256   0.000226   0.000533


                  C 19       C 20       H 21       H 22       H 23       C 24
 ------------------------------------------------------------------------------
     H   65   0.000496   0.000999   0.000540   0.000304   0.000201   0.000549
     H   66   0.001066   0.003262   0.001835   0.001029   0.000607   0.001112
     H   67   0.000831   0.001981   0.001172   0.000438   0.000462   0.000804
     H   68   0.002447   0.005975   0.003321   0.001620   0.001462   0.002304


                  H 25       H 26       H 27       C 28       H 29       H 30
 ------------------------------------------------------------------------------
     H   25   4.224002
     H   26   0.465399   4.224143
     H   27   0.465783   0.470294   4.208217
     C   28   0.012603   0.042869   0.045136  11.299169
     H   29   0.012271   0.006633   0.001475   3.437333   4.221119
     H   30   0.001911   0.003568   0.007559   3.430311   0.464638   4.249286
     H   31   0.009536   0.036403   0.003726   3.439576   0.467227   0.474104
     N   32   0.010518   0.006104   0.007570   0.188893   0.021916   0.057589
     C   33   0.003521   0.004417   0.006127   0.021800   0.004157   0.007720
     O   34   0.002060   0.002505   0.003283   0.011937   0.002526   0.004423
     H   35   0.000392   0.000375   0.000700   0.001610   0.000387   0.000690
     O   36   0.003017   0.003612   0.006029   0.020115   0.004428   0.008276
     H   37   0.002202   0.002102   0.004224   0.018992   0.005324   0.010250
     C   38   0.000871   0.000683   0.000700   0.004029   0.001222   0.002251
     C   39   0.002630   0.002845   0.002834   0.041660   0.013252   0.021263
     C   40   0.002582   0.002569   0.002858   0.035253   0.011572   0.017394
     C   41   0.002824   0.002339   0.003206   0.032928   0.010779   0.015972
     C   42   0.000885   0.000851   0.001042   0.004782   0.001255   0.002128
     C   43   0.000446   0.000456   0.000563   0.002762   0.000758   0.001141
     C   44   0.002828   0.003209   0.002849   0.048397   0.014788   0.025617
     C   45   0.000699   0.000697   0.000518   0.003636   0.001505   0.001864
     N   46   0.002081   0.001718   0.002263   0.019335   0.006266   0.009446
     C   47   0.000854   0.001003   0.000759   0.006526   0.001923   0.002808
     C   48   0.000520   0.000553   0.000558   0.003430   0.000998   0.001892
     C   49   0.000957   0.001001   0.001007   0.005576   0.001561   0.002833
     H   50   0.000252   0.000282   0.000200   0.001498   0.000402   0.000578
     H   51   0.000535   0.000442   0.000479   0.002501   0.000777   0.001122
     H   52   0.000255   0.000334   0.000274   0.002115   0.000673   0.000744
     H   53   0.000316   0.000288   0.000399   0.001837   0.000530   0.000760
     H   54   0.000952   0.000654   0.000996   0.003514   0.000917   0.001382
     H   55   0.000213   0.000245   0.000250   0.001394   0.000363   0.000509
     H   56   0.000292   0.000204   0.000261   0.001466   0.000462   0.000567
     H   57   0.000364   0.000440   0.000360   0.005030   0.001511   0.002492
     H   58   0.000253   0.000224   0.000195   0.001528   0.000628   0.000630
     H   59   0.000434   0.000283   0.000269   0.002223   0.000881   0.000941
     H   60   0.000231   0.000144   0.000177   0.001181   0.000280   0.000522
     H   61   0.000672   0.000753   0.001036   0.005203   0.001432   0.002533
     H   62   0.000133   0.000158   0.000191   0.000720   0.000217   0.000327
     H   63   0.000145   0.000175   0.000166   0.000842   0.000222   0.000373
     H   64   0.000115   0.000163   0.000154   0.000928   0.000257   0.000417
     H   65   0.000117   0.000137   0.000184   0.000925   0.000247   0.000426
     H   66   0.000254   0.000303   0.000428   0.001505   0.000376   0.000680
     H   67   0.000206   0.000262   0.000219   0.001212   0.000323   0.000700
     H   68   0.000543   0.000547   0.000523   0.003345   0.000931   0.001335


                  H 31       N 32       C 33       O 34       H 35       O 36
 ------------------------------------------------------------------------------
     H   31   4.239892
     N   32   0.008949  15.487051
     C   33   0.003897   0.088797  17.830675
     O   34   0.002048   0.053938  11.637243  13.566161
     H   35   0.000400   0.008934   3.248968   0.790770   4.079335
     O   36   0.003510   0.113977   6.259670   1.938811   0.805737   9.798639
     H   37   0.002050   0.172341   1.364945   0.329834   0.142577   2.669291
     C   38   0.000755   0.062802   0.011998   0.010532   0.001262   0.008425
     C   39   0.005719   0.189782   0.207780   0.144603   0.016531   0.165141
     C   40   0.004889   0.160308   0.240565   0.182666   0.020267   0.178948
     C   41   0.004616   0.150438   0.287501   0.227323   0.025122   0.209255
     C   42   0.000785   0.053557   0.071596   0.068852   0.006217   0.053252
     C   43   0.000625   0.015921   0.006831   0.007639   0.001075   0.006656
     C   44   0.007060   0.276393   0.187947   0.119847   0.014554   0.160872
     C   45   0.000908   0.049988   0.004533   0.006816   0.001122   0.005767
     N   46   0.003065   0.092482   0.209637   0.251690   0.020065   0.148899
     C   47   0.001599   0.031287   0.026469   0.033973   0.003462   0.019338
     C   48   0.001017   0.018945   0.018980   0.019700   0.001925   0.014342
     C   49   0.001472   0.041799   0.038475   0.035037   0.003633   0.031949
     H   50   0.000421   0.010251   0.001793   0.001599   0.000506   0.001459
     H   51   0.000363   0.039019   0.008004   0.005489   0.000544   0.005894
     H   52   0.000422   0.010578   0.003338   0.004542   0.000517   0.003589
     H   53   0.000456   0.009718   0.052992   0.031718   0.004002   0.032715
     H   54   0.000405   0.035888   0.049524   0.034195   0.004355   0.034080
     H   55   0.000352   0.004583   0.003115   0.003388   0.000333   0.002661
     H   56   0.000316   0.007993   0.004902   0.004983   0.000693   0.003885
     H   57   0.000810   0.029283   0.017071   0.010759   0.001279   0.014970
     H   58   0.000305   0.012259   0.001357   0.001445   0.000381   0.002281
     H   59   0.000329   0.035495   0.002938   0.002241   0.000365   0.002864
     H   60   0.000399   0.005516   0.001813   0.001200   0.000260   0.002312
     H   61   0.000826   0.035556   0.238199   0.147884   0.030293   0.136739
     H   62   0.000206   0.005414   0.007113   0.007139   0.001063   0.005358
     H   63   0.000257   0.003766   0.003061   0.002868   0.000464   0.002020
     H   64   0.000234   0.003888   0.004573   0.005076   0.000567   0.002860
     H   65   0.000245   0.004197   0.011606   0.009620   0.000823   0.007868
     H   66   0.000338   0.009994   0.019982   0.016955   0.001734   0.014205
     H   67   0.000345   0.006428   0.004737   0.003912   0.000387   0.003741
     H   68   0.001004   0.029299   0.020811   0.014189   0.001909   0.016975


                  H 37       C 38       C 39       C 40       C 41       C 42
 ------------------------------------------------------------------------------
     H   37   3.157031
     C   38   0.009357  11.990399
     C   39   0.176091   3.562658  16.134127
     C   40   0.175377   0.745762   5.292273  15.030410
     C   41   0.199247   0.065234   2.180894   6.098068  17.024422
     C   42   0.044884   0.670713   0.087916   0.795779   3.277642  11.963324
     C   43   0.008707   2.955518   0.630890   0.084632   0.699683   3.005859
     C   44   0.186709   0.800456   6.787079   1.889295   0.923063   0.070646
     C   45   0.008568   0.075052   0.750592   0.117807   0.084798   0.007841
     N   46   0.136640   0.033271   0.705435   1.983426   6.886317   1.048492
     C   47   0.022314   0.010439   0.171536   0.210662   0.936866   0.105647
     C   48   0.014683   0.005533   0.088091   0.116742   0.172217   0.021563
     C   49   0.032948   0.006365   0.093236   0.119613   0.186920   0.021681
     H   50   0.001908   3.258793   0.750786   0.036629   0.012078   0.045575
     H   51   0.004972   3.189641   0.748357   0.029406   0.015257   0.007360
     H   52   0.005562   0.052343   0.798107   3.423556   0.797252   0.071937
     H   53   0.021822   0.045190   0.030541   0.054300   0.736170   3.272528
     H   54   0.029035   0.007426   0.053494   0.059822   0.758623   3.197286
     H   55   0.003162   0.689261   0.030861   0.018778   0.040761   0.696480
     H   56   0.003501   0.671661   0.051974   0.009169   0.050187   0.679328
     H   57   0.018189   0.083336   0.808490   0.120507   0.075012   0.007139
     H   58   0.003203   0.004145   0.056968   0.009759   0.013936   0.001263
     H   59   0.003334   0.015254   0.029946   0.019246   0.017250   0.002904
     H   60   0.002793   0.008692   0.019874   0.015189   0.008684   0.002274
     H   61   0.096030   0.008273   0.122249   0.189915   1.021603   0.072836
     H   62   0.005131   0.002079   0.023100   0.080239   0.102958   0.008072
     H   63   0.001739   0.000955   0.010167   0.015017   0.023002   0.004072
     H   64   0.002725   0.001952   0.022612   0.032152   0.048036   0.004644
     H   65   0.005916   0.001254   0.019036   0.026364   0.040966   0.004158
     H   66   0.012990   0.001329   0.013919   0.020164   0.032609   0.003629
     H   67   0.003669   0.001019   0.010209   0.014241   0.022136   0.003155
     H   68   0.018929   0.002331   0.046851   0.053293   0.070528   0.005999


                  C 43       C 44       C 45       N 46       C 47       C 48
 ------------------------------------------------------------------------------
     C   43  11.941286
     C   44   0.069846  14.127633
     C   45   0.007807   3.811018  11.607934
     N   46   0.057646   0.506026   0.050643  15.182587
     C   47   0.017048   0.124671   0.014605   3.668621  12.638910
     C   48   0.007419   0.064400   0.007335   0.970515   2.796245  11.271374
     C   49   0.003599   0.075402   0.008130   0.953833   2.885750   0.701150
     H   50   0.676994   0.045012   0.015838   0.007867   0.002292   0.001929
     H   51   0.669377   0.056305   0.010028   0.006851   0.002721   0.001330
     H   52   0.005554   0.112512   0.007108   0.057974   0.074331   0.012997
     H   53   0.659726   0.025990   0.002508   0.069552   0.009188   0.005490
     H   54   0.661612   0.044266   0.003261   0.041619   0.014700   0.004767
     H   55   3.315341   0.018078   0.003505   0.011405   0.004127   0.003827
     H   56   3.326860   0.012503   0.002792   0.008895   0.003198   0.001151
     H   57   0.007140   3.411213   0.681165   0.045032   0.012083   0.006410
     H   58   0.001235   0.703446   3.424722   0.008732   0.002880   0.001625
     H   59   0.002834   0.703119   3.355328   0.010576   0.003025   0.001686
     H   60   0.001825   0.714842   3.374857   0.005840   0.001783   0.001106
     H   61   0.008989   0.085027   0.009852   3.334985   0.680216   0.026061
     H   62   0.001645   0.019067   0.002138   0.812169   3.109177   0.665516
     H   63   0.000925   0.007903   0.001333   0.050614   0.669911   3.439175
     H   64   0.001962   0.016146   0.002204   0.033194   0.681045   3.435268
     H   65   0.001687   0.013369   0.001610   0.017530   0.690097   3.442658
     H   66   0.001315   0.009405   0.001640   0.014505   0.689740   0.012207
     H   67   0.000715   0.009438   0.001458   0.057610   0.672729   0.014652
     H   68   0.001573   0.043614   0.002376   0.048405   0.685372   0.047724


                  C 49       H 50       H 51       H 52       H 53       H 54
 ------------------------------------------------------------------------------
     C   49  11.295137
     H   50   0.001895   4.216951
     H   51   0.002171   0.453291   4.128266
     H   52   0.011527   0.006541   0.005792   4.410538
     H   53   0.005432   0.007540   0.002174   0.008700   4.204885
     H   54   0.003170   0.001987   0.010723   0.008893   0.445155   4.166012
     H   55   0.002513   0.025993   0.044224   0.002173   0.020906   0.046548
     H   56   0.001336   0.017349   0.023860   0.001309   0.021135   0.018919
     H   57   0.007617   0.007405   0.010188   0.028890   0.002272   0.004083
     H   58   0.001795   0.001786   0.002028   0.001247   0.000609   0.000679
     H   59   0.001965   0.016960   0.015979   0.001239   0.000624   0.001474
     H   60   0.001352   0.014464   0.004544   0.001367   0.000435   0.000617
     H   61   0.034443   0.001681   0.002124   0.009701   0.037241   0.020825
     H   62   0.664861   0.000414   0.000276   0.040880   0.000812   0.000965
     H   63   0.014533   0.000459   0.000369   0.002885   0.000486   0.000533
     H   64   0.048377   0.000723   0.000422   0.004618   0.002029   0.000859
     H   65   0.012492   0.000539   0.000345   0.001526   0.002180   0.000908
     H   66   3.445751   0.000532   0.000437   0.001688   0.001544   0.001243
     H   67   3.442814   0.000419   0.000377   0.002645   0.000514   0.000629
     H   68   3.364545   0.000688   0.001036   0.004467   0.001417   0.001981


                  H 55       H 56       H 57       H 58       H 59       H 60
 ------------------------------------------------------------------------------
     H   55   4.246341
     H   56   0.455587   4.250596
     H   57   0.001971   0.001812   4.350657
     H   58   0.000573   0.000484   0.023797   4.230352
     H   59   0.001143   0.001252   0.036844   0.462164   4.171249
     H   60   0.001177   0.000864   0.014413   0.468645   0.466040   4.195582
     H   61   0.003988   0.002643   0.007498   0.001813   0.002185   0.001158
     H   62   0.000503   0.000330   0.003140   0.000473   0.000401   0.000452
     H   63   0.000455   0.000346   0.000967   0.000381   0.000305   0.000157
     H   64   0.001609   0.000456   0.001676   0.000473   0.000488   0.000442
     H   65   0.000859   0.000404   0.001244   0.000369   0.000446   0.000291
     H   66   0.000538   0.000323   0.001060   0.000343   0.000447   0.000343
     H   67   0.000275   0.000381   0.001151   0.000402   0.000368   0.000265
     H   68   0.000850   0.000508   0.004143   0.000672   0.000731   0.000617


                  H 61       H 62       H 63       H 64       H 65       H 66
 ------------------------------------------------------------------------------
     H   61   4.247435
     H   62   0.061476   4.209729
     H   63   0.004888   0.017799   4.225459
     H   64   0.014141   0.018066   0.463418   4.216149
     H   65   0.021410   0.045667   0.465130   0.462285   4.222380
     H   66   0.025839   0.045542   0.007329   0.003027   0.015962   4.223402
     H   67   0.003424   0.019447   0.018020   0.002694   0.006893   0.465428
     H   68   0.020012   0.019262   0.004074   0.008232   0.003947   0.456296


                  H 67       H 68
 ------------------------------
     H   67   4.229211
     H   68   0.458325   4.157834


          HEAT OF FORMATION =    -160.385098 KCALS/MOLE

          ZERO POINT ENERGY     339.436 KCAL/MOL

         NOTE: SYSTEM IS NOT A GROUND STATE, THEREFORE ZERO POINT
         ENERGY IS NOT MEANINGFULL. ZERO POINT ENERGY PRINTED
         DOES NOT INCLUDE THE  2 IMAGINARY FREQUENCIES


           NORMAL COORDINATE ANALYSIS (Total motion = 1 Angstrom)


   Root No.       1         2         3         4         5         6         7         8

                 1 A       2 A       3 A       4 A       5 A       6 A       7 A       8 A   

                -366.7     -26.0      24.5      28.3      38.3      41.2      50.2      55.6
  
           1    0.0309   -0.0011   -0.0087    0.0035    0.0035    0.0044   -0.0042    0.0077
           2    0.0338    0.0001    0.0033   -0.0009    0.0040    0.0041   -0.0033    0.0100
           3   -0.1117   -0.0039    0.0057    0.0044    0.0000    0.0011   -0.0052    0.0006
           4   -0.0078   -0.0010   -0.0086    0.0037    0.0034    0.0045   -0.0043    0.0077
           5    0.0224   -0.0002    0.0052   -0.0057   -0.0007    0.0020   -0.0033    0.0018
           6   -0.0224   -0.0053    0.0029    0.0070    0.0031    0.0011   -0.0061    0.0053
           7   -0.0145   -0.0007   -0.0098    0.0066    0.0061    0.0060   -0.0044    0.0126
           8   -0.0068    0.0004    0.0023    0.0015    0.0060    0.0054   -0.0036    0.0137
           9    0.0602   -0.0049    0.0087    0.0054    0.0010    0.0019   -0.0091    0.0039
          10    0.0169   -0.0006   -0.0092    0.0058    0.0057    0.0057   -0.0040    0.0115
          11   -0.0013   -0.0002    0.0057   -0.0087   -0.0033    0.0003   -0.0017   -0.0030
          12    0.0074   -0.0063    0.0032    0.0102    0.0050    0.0032   -0.0112    0.0096
          13    0.0007   -0.0019   -0.0077   -0.0001   -0.0005    0.0030   -0.0047    0.0010
          14   -0.0254   -0.0008    0.0068   -0.0061   -0.0030    0.0028   -0.0063   -0.0003
          15   -0.0081   -0.0043   -0.0005    0.0042    0.0055   -0.0028    0.0017    0.0040
          16    0.0031   -0.0022   -0.0077   -0.0015   -0.0027    0.0032   -0.0050   -0.0016
          17    0.0101   -0.0013    0.0070   -0.0101   -0.0090    0.0037   -0.0068   -0.0068
          18   -0.0005   -0.0047   -0.0021    0.0047    0.0149   -0.0057    0.0046    0.0029
          19    0.0029   -0.0019   -0.0080    0.0001    0.0003    0.0028   -0.0048    0.0011
          20    0.0115   -0.0003    0.0039    0.0027    0.0069    0.0062   -0.0071    0.0154
          21   -0.0213   -0.0028    0.0037   -0.0007   -0.0038   -0.0023    0.0037   -0.0064
          22    0.0058   -0.0023   -0.0079   -0.0007   -0.0006    0.0023   -0.0051   -0.0007
          23    0.0045   -0.0000    0.0023    0.0073    0.0115    0.0087   -0.0088    0.0259
          24   -0.0006   -0.0017    0.0063   -0.0052   -0.0082   -0.0045    0.0087   -0.0179
          25    0.0024   -0.0025   -0.0054   -0.0054   -0.0049   -0.0029   -0.0031   -0.0017
          26   -0.0062   -0.0013    0.0055    0.0003    0.0016    0.0027   -0.0060    0.0052
          27   -0.0011   -0.0021    0.0018   -0.0024    0.0007    0.0008    0.0015    0.0047
          28    0.0005   -0.0016    0.0089   -0.0057   -0.0045   -0.0078    0.0008    0.0042
          29   -0.0022   -0.0021   -0.0006    0.0012   -0.0015   -0.0033    0.0005    0.0041
          30   -0.0018   -0.0015    0.0092   -0.0026    0.0011   -0.0000    0.0020    0.0077
          31    0.0007   -0.0029   -0.0162   -0.0095   -0.0093   -0.0043   -0.0033    0.0010
          32   -0.0019   -0.0007    0.0093    0.0008    0.0045    0.0066   -0.0101    0.0043
          33    0.0008   -0.0017   -0.0010   -0.0048    0.0010    0.0054   -0.0044    0.0054
          34   -0.0003   -0.0010    0.0147   -0.0146   -0.0086   -0.0124    0.0067    0.0222
          35   -0.0020   -0.0025   -0.0029    0.0020   -0.0019   -0.0050    0.0023    0.0028
          36   -0.0020   -0.0003    0.0174   -0.0075    0.0026    0.0043   -0.0025    0.0160
          37   -0.0006   -0.0025   -0.0113   -0.0171   -0.0136   -0.0090    0.0021    0.0172
          38   -0.0014   -0.0011    0.0072    0.0021    0.0038    0.0048   -0.0082    0.0022
          39   -0.0003   -0.0007    0.0057   -0.0090    0.0021    0.0100   -0.0094    0.0129
          40    0.0068   -0.0035   -0.0282   -0.0067   -0.0094   -0.0022   -0.0071   -0.0080
          41   -0.0011   -0.0001    0.0142    0.0003    0.0070    0.0112   -0.0148    0.0049
          42    0.0060   -0.0022   -0.0086   -0.0032    0.0003    0.0056   -0.0055    0.0004
          43   -0.0009   -0.0014    0.0052   -0.0205   -0.0132   -0.0128    0.0076    0.0299
          44   -0.0009   -0.0019    0.0008    0.0026    0.0005   -0.0012   -0.0019    0.0016
          45   -0.0009    0.0001    0.0158   -0.0109    0.0032    0.0094   -0.0079    0.0197
          46   -0.0005   -0.0002    0.0272   -0.0167   -0.0084   -0.0159    0.0106    0.0305
          47   -0.0028   -0.0031   -0.0071    0.0023   -0.0055   -0.0093    0.0075    0.0037
          48   -0.0019    0.0002    0.0251   -0.0087    0.0037    0.0035   -0.0018    0.0203
          49    0.0004   -0.0028   -0.0198   -0.0205   -0.0171   -0.0099    0.0023    0.0206
          50   -0.0021   -0.0007    0.0102    0.0027    0.0060    0.0081   -0.0116    0.0009
          51    0.0005   -0.0004    0.0033   -0.0110    0.0024    0.0140   -0.0142    0.0137
          52   -0.0008   -0.0009    0.0100   -0.0272   -0.0163   -0.0162    0.0124    0.0449
          53   -0.0015   -0.0022   -0.0010    0.0034   -0.0001   -0.0027   -0.0004    0.0000
          54   -0.0005    0.0010    0.0224   -0.0148    0.0042    0.0128   -0.0110    0.0275
          55    0.0005   -0.0011    0.0164    0.0049   -0.0023   -0.0086   -0.0012   -0.0085
          56   -0.0010   -0.0030   -0.0065    0.0005   -0.0006   -0.0083    0.0052    0.0042
          57   -0.0003   -0.0022    0.0066    0.0020    0.0031   -0.0057    0.0060    0.0016
          58    0.0004   -0.0009    0.0169    0.0065   -0.0077   -0.0070   -0.0007   -0.0074
          59   -0.0003   -0.0043   -0.0136   -0.0180    0.0270   -0.0160    0.0037    0.0092
          60   -0.0006   -0.0030    0.0070    0.0024    0.0298   -0.0147    0.0028   -0.0126
          61    0.0047   -0.0001    0.0181    0.0115   -0.0316    0.0003    0.0020   -0.0005
          62   -0.0010   -0.0044   -0.0069   -0.0299    0.0554   -0.0184   -0.0052   -0.0049
          63   -0.0029   -0.0031    0.0037    0.0067    0.0227   -0.0154    0.0061   -0.0077
          64    0.0002   -0.0017    0.0118   -0.0043    0.0074   -0.0118   -0.0008   -0.0028
          65   -0.0011   -0.0046   -0.0165   -0.0230    0.0329   -0.0182    0.0041    0.0126
          66   -0.0020   -0.0031    0.0155   -0.0066    0.0629   -0.0185   -0.0073   -0.0326
          67    0.0003   -0.0008    0.0211    0.0132   -0.0021   -0.0085   -0.0030   -0.0190
          68   -0.0026   -0.0047   -0.0222   -0.0155    0.0140   -0.0171    0.0106    0.0235
          69   -0.0030   -0.0032    0.0024    0.0081    0.0222   -0.0164    0.0072   -0.0073
          70    0.0004   -0.0022    0.0145   -0.0011    0.0358   -0.0207   -0.0058   -0.0237
          71    0.0001   -0.0038   -0.0118    0.0106   -0.0125   -0.0107    0.0115   -0.0014
          72    0.0001   -0.0018    0.0084    0.0003   -0.0016   -0.0023    0.0051    0.0067
          73    0.0004   -0.0024    0.0132   -0.0043    0.0430   -0.0228   -0.0064   -0.0246
          74    0.0000   -0.0032   -0.0072    0.0237   -0.0323   -0.0055    0.0132   -0.0034
          75   -0.0009   -0.0010    0.0096   -0.0001   -0.0233    0.0058    0.0071    0.0198
          76    0.0009   -0.0021    0.0185    0.0081    0.0359   -0.0213   -0.0068   -0.0329
          77   -0.0006   -0.0044   -0.0162    0.0110   -0.0112   -0.0139    0.0141   -0.0037
          78   -0.0008   -0.0024    0.0047    0.0036   -0.0002   -0.0061    0.0077    0.0013
          79    0.0000   -0.0030    0.0101   -0.0118    0.0592   -0.0276   -0.0079   -0.0266
          80   -0.0003   -0.0044   -0.0163    0.0048   -0.0024   -0.0149    0.0120   -0.0020
          81   -0.0004   -0.0015    0.0126   -0.0040    0.0149   -0.0039   -0.0002    0.0031
          82    0.0005    0.0003    0.0245    0.0217   -0.0336    0.0006    0.0006   -0.0090
          83    0.0000   -0.0023   -0.0017    0.0078   -0.0132   -0.0040    0.0052    0.0035
          84   -0.0004   -0.0029   -0.0004    0.0079   -0.0148   -0.0051    0.0128    0.0044
          85    0.0002    0.0002    0.0231    0.0205   -0.0345    0.0007    0.0012   -0.0080
          86   -0.0003   -0.0011    0.0061    0.0204   -0.0352    0.0030    0.0058    0.0026
          87   -0.0022   -0.0026   -0.0050    0.0080   -0.0316   -0.0004    0.0164    0.0106
          88    0.0043    0.0011    0.0245    0.0294   -0.0602    0.0077    0.0047   -0.0045
          89    0.0041   -0.0021   -0.0022   -0.0007   -0.0007   -0.0056    0.0029    0.0046
          90   -0.0074   -0.0035   -0.0001    0.0097   -0.0093   -0.0077    0.0122    0.0013
          91   -0.0022    0.0007    0.0330    0.0289   -0.0318    0.0008   -0.0024   -0.0151
          92   -0.0038   -0.0030   -0.0052    0.0099   -0.0148   -0.0062    0.0077    0.0026
          93   -0.0044   -0.0034   -0.0017    0.0104   -0.0155   -0.0066    0.0141    0.0029
          94    0.0086   -0.0025   -0.0076   -0.0017   -0.0014    0.0017   -0.0052   -0.0025
          95   -0.0032   -0.0009    0.0073   -0.0011    0.0026    0.0047   -0.0088    0.0062
          96   -0.0057   -0.0028   -0.0024    0.0007   -0.0011   -0.0031    0.0067    0.0023
          97    0.0044    0.0045    0.0014    0.0076    0.0142    0.0287    0.0295   -0.0009
          98   -0.0124    0.0028    0.0068   -0.0044    0.0005    0.0153    0.0032   -0.0078
          99    0.0019    0.0046   -0.0139    0.0134   -0.0013   -0.0101    0.0043    0.0067
         100    0.0034    0.0048    0.0029    0.0229    0.0210    0.0227    0.0296    0.0163
         101   -0.0061    0.0070    0.0018    0.0057    0.0017    0.0133    0.0010   -0.0022
         102   -0.0038    0.0035   -0.0128    0.0095   -0.0022   -0.0091    0.0049    0.0038
         103   -0.0008    0.0069    0.0032    0.0069    0.0179    0.0402    0.0398   -0.0043
         104   -0.0102    0.0023    0.0096   -0.0061    0.0026    0.0198    0.0083   -0.0088
         105   -0.0052    0.0074   -0.0187    0.0166   -0.0032   -0.0117    0.0007    0.0064
         106    0.0041    0.0007   -0.0025   -0.0116    0.0008    0.0221    0.0169   -0.0188
         107   -0.0083   -0.0022    0.0094   -0.0155   -0.0039    0.0117   -0.0012   -0.0147
         108   -0.0046    0.0025   -0.0094    0.0148    0.0025   -0.0094    0.0078    0.0111
         109    0.0182   -0.0007   -0.0050   -0.0086   -0.0014    0.0130    0.0082   -0.0126
         110   -0.0275   -0.0018    0.0072   -0.0130   -0.0053    0.0080   -0.0052   -0.0120
         111    0.0016   -0.0006   -0.0055    0.0106    0.0048   -0.0080    0.0089    0.0092
         112   -0.0064    0.0005   -0.0015    0.0042    0.0017   -0.0016   -0.0086   -0.0017
         113   -0.0076    0.0030   -0.0026   -0.0072   -0.0020   -0.0028    0.0133   -0.0064
         114    0.0026   -0.0028    0.0023   -0.0019   -0.0030   -0.0052    0.0029   -0.0109
         115   -0.0253    0.0011   -0.0015   -0.0002    0.0013   -0.0007   -0.0034   -0.0023
         116    0.0059    0.0026   -0.0026   -0.0049   -0.0017   -0.0030    0.0107   -0.0058
         117    0.0217   -0.0033    0.0024    0.0012   -0.0014   -0.0022   -0.0001   -0.0049
         118    0.0089    0.0010   -0.0012   -0.0009    0.0012   -0.0012   -0.0025   -0.0026
         119   -0.0016    0.0027   -0.0030   -0.0004   -0.0015   -0.0038    0.0051   -0.0058
         120   -0.0062   -0.0016   -0.0019    0.0028   -0.0009    0.0022   -0.0036   -0.0018
         121   -0.0119    0.0010   -0.0015    0.0031    0.0018   -0.0013   -0.0071   -0.0018
         122    0.0115    0.0025   -0.0030    0.0028   -0.0011   -0.0038    0.0017   -0.0052
         123   -0.0054    0.0028   -0.0073   -0.0020   -0.0040    0.0023   -0.0047   -0.0036
         124   -0.0003    0.0007   -0.0026    0.0074    0.0020   -0.0009   -0.0133   -0.0005
         125    0.0032    0.0036   -0.0022    0.0015   -0.0007   -0.0030    0.0039   -0.0057
[...]
 FORCE CONSTANT      1.1520

 VIBRATION        167  167A           ATOM PAIR      ENERGY CONTRIBUTION    RADIAL
 FREQUENCY          2659.90         C 45 -- H 59         +67.3% ( 84.6%)     99.6%
 TRANSITION DIPOLE   0.3309         C 45 -- H 60         +20.8% ( 47.0%)     90.7%
 TRAVEL (Ang.)       0.2216         C 45 -- H 58          +7.8% ( 28.7%)     72.2%
 REDUCED MASS        0.5165         C 44 -- H 57          +1.0% ( 10.6%)     99.2%
 EFFECTIVE MASS      1.4376
 FORCE CONSTANT      2.1529

 VIBRATION        168  168A           ATOM PAIR      ENERGY CONTRIBUTION    RADIAL
 FREQUENCY          2661.42         C 49 -- H 68         +39.1% ( 64.0%)     99.6%
 TRANSITION DIPOLE   0.9868         N 46 -- H 61         +20.6% ( 46.4%)     99.7%
 TRAVEL (Ang.)       0.3241         C 47 -- H 62         +17.7% ( 43.0%)     99.9%
 REDUCED MASS        0.2412         C 49 -- H 67          +8.3% ( 29.5%)     85.8%
 EFFECTIVE MASS      1.4026
 FORCE CONSTANT      1.0065

 VIBRATION        169  169A           ATOM PAIR      ENERGY CONTRIBUTION    RADIAL
 FREQUENCY          2668.15         C 33 -- H 35         +93.6% ( 98.3%)    100.0%
 TRANSITION DIPOLE   0.4397         C 33 -- O 34          +1.6% ( 12.7%)     49.2%
 TRAVEL (Ang.)       0.1705         C 33 -- O 36          +1.4% ( 12.2%)      4.5%
 REDUCED MASS        0.8698         C 20 -- H 21          +1.2% ( 11.1%)     98.8%
 EFFECTIVE MASS      1.4601
 FORCE CONSTANT      3.6483

 VIBRATION        170  170A           ATOM PAIR      ENERGY CONTRIBUTION    RADIAL
 FREQUENCY          2669.81         N 46 -- H 61         +28.6% ( 54.7%)     99.9%
 TRANSITION DIPOLE   0.5642         C 20 -- H 21         +18.5% ( 44.0%)     98.7%
 TRAVEL (Ang.)       0.4016         C 20 -- H 22         +13.8% ( 38.0%)     96.4%
 REDUCED MASS        0.1566         C 48 -- H 65         +10.3% ( 32.9%)     99.1%
 EFFECTIVE MASS      1.4173
 FORCE CONSTANT      0.6577

 VIBRATION        171  171A           ATOM PAIR      ENERGY CONTRIBUTION    RADIAL
 FREQUENCY          2670.87         C 20 -- H 21         +15.0% ( 39.9%)     98.7%
 TRANSITION DIPOLE   0.7222         C 24 -- H 27         +14.0% ( 38.5%)     98.9%
 TRAVEL (Ang.)       0.5162         N 46 -- H 61         +11.0% ( 34.2%)     99.9%
 REDUCED MASS        0.0948         C 20 -- H 22         +10.5% ( 33.3%)     96.1%
 EFFECTIVE MASS      1.4350
 FORCE CONSTANT      0.3983

 VIBRATION        172  172A           ATOM PAIR      ENERGY CONTRIBUTION    RADIAL
 FREQUENCY          2671.34         C 43 -- H 56         +35.5% ( 61.3%)     98.1%
 TRANSITION DIPOLE   0.6602         C 43 -- H 55         +33.5% ( 59.6%)     98.1%
 TRAVEL (Ang.)       0.3158         N 46 -- H 61          +6.0% ( 25.2%)     99.8%
 REDUCED MASS        0.2530         C 42 -- H 53          +2.9% ( 17.7%)     98.4%
 EFFECTIVE MASS      1.4435
 FORCE CONSTANT      1.0639

 VIBRATION        173  173A           ATOM PAIR      ENERGY CONTRIBUTION    RADIAL
 FREQUENCY          2673.66         C 24 -- H 26         +30.0% ( 56.5%)     98.6%
 TRANSITION DIPOLE   0.8242         C 24 -- H 27         +23.2% ( 49.6%)     96.7%
 TRAVEL (Ang.)       0.3536         C 20 -- H 21         +19.8% ( 45.9%)     99.3%
 REDUCED MASS        0.2017         C 20 -- H 22          +9.2% ( 31.2%)     93.1%
 EFFECTIVE MASS      1.4512
 FORCE CONSTANT      0.8493

 VIBRATION        174  174A           ATOM PAIR      ENERGY CONTRIBUTION    RADIAL
 FREQUENCY          2674.78         C 45 -- H 58         +49.5% ( 72.5%)     98.5%
 TRANSITION DIPOLE   0.4834         C 45 -- H 60         +45.1% ( 69.2%)     97.2%
 TRAVEL (Ang.)       0.2333         C 45 -- H 59          +2.4% ( 15.8%)     31.5%
 REDUCED MASS        0.4632         C 44 -- H 57          +1.1% ( 10.8%)     99.2%
 EFFECTIVE MASS      1.4386
 FORCE CONSTANT      1.9523

 VIBRATION        175  175A           ATOM PAIR      ENERGY CONTRIBUTION    RADIAL
 FREQUENCY          2677.75         C 28 -- H 31         +42.2% ( 67.0%)     99.5%
 TRANSITION DIPOLE   0.4119         C 24 -- H 27         +16.4% ( 41.8%)     99.0%
 TRAVEL (Ang.)       0.3126         C 28 -- H 30         +12.9% ( 37.0%)     86.6%
 REDUCED MASS        0.2577         C 28 -- H 29         +12.4% ( 36.3%)     86.9%
 EFFECTIVE MASS      1.4606         C 24 -- H 25         +10.4% ( 33.3%)     95.8%
 FORCE CONSTANT      1.0887

 VIBRATION        176  176A           ATOM PAIR      ENERGY CONTRIBUTION    RADIAL
 FREQUENCY          2678.41         C 49 -- H 67         +29.9% ( 56.4%)     98.8%
 TRANSITION DIPOLE   0.4350         C 48 -- H 65         +24.5% ( 51.1%)     99.4%
 TRAVEL (Ang.)       0.3336         C 49 -- H 66         +22.9% ( 49.3%)     96.3%
 REDUCED MASS        0.2263         C 48 -- H 64         +12.2% ( 36.0%)     93.4%
 EFFECTIVE MASS      1.4544
 FORCE CONSTANT      0.9564

 VIBRATION        177  177A           ATOM PAIR      ENERGY CONTRIBUTION    RADIAL
 FREQUENCY          2679.85         C 48 -- H 63         +30.3% ( 56.8%)     98.7%
 TRANSITION DIPOLE   0.2179         C 48 -- H 64         +23.0% ( 49.5%)     96.6%
 TRAVEL (Ang.)       0.3536         C 24 -- H 25         +19.6% ( 45.6%)     99.5%
 REDUCED MASS        0.2013         C 24 -- H 26          +7.8% ( 28.7%)     92.1%
 EFFECTIVE MASS      1.4603
 FORCE CONSTANT      0.8517

 VIBRATION        178  178A           ATOM PAIR      ENERGY CONTRIBUTION    RADIAL
 FREQUENCY          2680.13         C 24 -- H 25         +24.8% ( 51.4%)     99.5%
 TRANSITION DIPOLE   0.8223         C 48 -- H 63         +22.8% ( 49.2%)     98.8%
 TRAVEL (Ang.)       0.3884         C 48 -- H 64         +16.6% ( 42.0%)     96.3%
 REDUCED MASS        0.1668         C 24 -- H 26          +9.6% ( 31.9%)     91.8%
 EFFECTIVE MASS      1.4604
 FORCE CONSTANT      0.7059

 VIBRATION        179  179A           ATOM PAIR      ENERGY CONTRIBUTION    RADIAL
 FREQUENCY          2683.22         C 28 -- H 29         +48.9% ( 72.1%)     98.8%
 TRANSITION DIPOLE   0.5591         C 28 -- H 30         +32.5% ( 58.8%)     96.8%
 TRAVEL (Ang.)       0.2624         C 20 -- H 23          +5.4% ( 23.9%)     99.6%
 REDUCED MASS        0.3650         C 24 -- H 25          +5.0% ( 23.0%)     99.3%
 EFFECTIVE MASS      1.4625
 FORCE CONSTANT      1.5485

 VIBRATION        180  180A           ATOM PAIR      ENERGY CONTRIBUTION    RADIAL
 FREQUENCY          2685.35         C 20 -- H 23         +49.6% ( 72.6%)     99.3%
 TRANSITION DIPOLE   0.7402         C 20 -- H 22         +24.6% ( 51.1%)     93.6%
 TRAVEL (Ang.)       0.2746         C 20 -- H 21          +8.0% ( 29.1%)     74.1%
 REDUCED MASS        0.3329         C 28 -- H 29          +5.4% ( 23.9%)     98.8%
 EFFECTIVE MASS      1.4659
 FORCE CONSTANT      1.4145

 VIBRATION        181  181A           ATOM PAIR      ENERGY CONTRIBUTION    RADIAL
 FREQUENCY          2693.38         C 47 -- H 62         +28.1% ( 53.9%)     99.9%
 TRANSITION DIPOLE   1.4437         C 49 -- H 66         +16.7% ( 41.5%)     98.7%
 TRAVEL (Ang.)       0.3772         C 49 -- H 67         +15.5% ( 40.0%)     96.6%
 REDUCED MASS        0.1760         C 48 -- H 65         +14.0% ( 38.0%)     99.6%
 EFFECTIVE MASS      1.4397         N 46 -- H 61         +12.3% ( 35.6%)     99.9%
 FORCE CONSTANT      0.7521

 VIBRATION        182  182A           ATOM PAIR      ENERGY CONTRIBUTION    RADIAL
 FREQUENCY          2721.81         C 38 -- H 50         +51.9% ( 71.6%)     98.5%
 TRANSITION DIPOLE   0.6772         C 11 -- H 14         +23.2% ( 47.9%)    100.0%
 TRAVEL (Ang.)       0.2608         C 38 -- H 51         +21.7% ( 46.3%)     92.6%
 REDUCED MASS        0.3641         C 13 -- H 17          +0.4% (  6.6%)     98.0%
 EFFECTIVE MASS      1.2844
 FORCE CONSTANT      1.5893

 VIBRATION        183  183A           ATOM PAIR      ENERGY CONTRIBUTION    RADIAL
 FREQUENCY          2729.82         C 42 -- H 53         +47.1% ( 67.6%)     97.5%
 TRANSITION DIPOLE   0.7371         C 42 -- H 54         +36.4% ( 59.4%)     95.7%
 TRAVEL (Ang.)       0.2626         C 11 -- H 14          +7.4% ( 26.8%)    100.0%
 REDUCED MASS        0.3582         C 38 -- H 50          +3.5% ( 18.3%)     97.9%
 EFFECTIVE MASS      1.2540
 FORCE CONSTANT      1.5726

 VIBRATION        184  184A           ATOM PAIR      ENERGY CONTRIBUTION    RADIAL
 FREQUENCY          2739.06         C 44 -- H 57         +55.4% ( 75.8%)     99.9%
 TRANSITION DIPOLE   0.2833         C  1 -- H  3         +36.2% ( 61.3%)    100.0%
 TRAVEL (Ang.)       0.2368         C 45 -- H 58          +2.1% ( 14.8%)     99.1%
 REDUCED MASS        0.4389         C  1 -- C 44          +1.0% ( 10.4%)      0.0%
 EFFECTIVE MASS      1.3895
 FORCE CONSTANT      1.9402

 VIBRATION        185  185A           ATOM PAIR      ENERGY CONTRIBUTION    RADIAL
 FREQUENCY          2739.56         C 11 -- H 14         +55.0% ( 74.2%)    100.0%
 TRANSITION DIPOLE   1.0545         C 12 -- H 16          +9.8% ( 31.4%)    100.0%
 TRAVEL (Ang.)       0.2795         C 38 -- H 50          +8.2% ( 28.6%)     96.8%
 REDUCED MASS        0.3150         C 38 -- H 51          +8.1% ( 28.5%)     96.9%
 EFFECTIVE MASS      1.3364
 FORCE CONSTANT      1.3930

 VIBRATION        186  186A           ATOM PAIR      ENERGY CONTRIBUTION    RADIAL
 FREQUENCY          2744.23         C 43 -- H 56         +47.8% ( 68.1%)     96.6%
 TRANSITION DIPOLE   0.6327         C 43 -- H 55         +46.3% ( 67.0%)     96.3%
 TRAVEL (Ang.)       0.2367         C 12 -- H 16          +2.6% ( 15.8%)    100.0%
 REDUCED MASS        0.4387         C 42 -- H 54          +0.9% (  9.5%)     93.7%
 EFFECTIVE MASS      1.2503
 FORCE CONSTANT      1.9464

 VIBRATION        187  187A           ATOM PAIR      ENERGY CONTRIBUTION    RADIAL
 FREQUENCY          2745.57         C 12 -- H 16         +77.6% ( 88.8%)    100.0%
 TRANSITION DIPOLE   0.3562         C 11 -- H 14          +8.5% ( 29.4%)    100.0%
 TRAVEL (Ang.)       0.2037         C 15 -- H 18          +6.8% ( 26.3%)     99.4%
 REDUCED MASS        0.5920         C 43 -- H 55          +1.2% ( 11.0%)     97.3%
 EFFECTIVE MASS      1.3663
 FORCE CONSTANT      2.6295

 VIBRATION        188  188A           ATOM PAIR      ENERGY CONTRIBUTION    RADIAL
 FREQUENCY          2747.72         C  1 -- H  3         +58.4% ( 77.9%)    100.0%
 TRANSITION DIPOLE   1.0934         C 44 -- H 57         +32.1% ( 57.8%)     99.9%
 TRAVEL (Ang.)       0.2335         C 40 -- H 52          +2.5% ( 16.0%)     99.9%
 REDUCED MASS        0.4502         C 45 -- H 58          +1.5% ( 12.5%)     99.4%
 EFFECTIVE MASS      1.4104
 FORCE CONSTANT      2.0026

 VIBRATION        189  189A           ATOM PAIR      ENERGY CONTRIBUTION    RADIAL
 FREQUENCY          2761.14         C 13 -- H 17         +55.7% ( 75.4%)    100.0%
 TRANSITION DIPOLE   0.8085         C 15 -- H 18         +36.3% ( 60.9%)     99.9%
 TRAVEL (Ang.)       0.2384         C 12 -- H 16          +3.5% ( 18.8%)     99.5%
 REDUCED MASS        0.4297         C 11 -- H 14          +2.1% ( 14.5%)     98.9%
 EFFECTIVE MASS      1.3654
 FORCE CONSTANT      1.9303

 VIBRATION        190  190A           ATOM PAIR      ENERGY CONTRIBUTION    RADIAL
 FREQUENCY          2764.17         C 40 -- H 52         +93.3% ( 97.3%)    100.0%
 TRANSITION DIPOLE   0.6345         C 44 -- H 57          +2.3% ( 15.3%)     99.6%
 TRAVEL (Ang.)       0.1703         C  2 -- H  4          +0.9% (  9.6%)     99.9%
 REDUCED MASS        0.8412         C 39 -- C 40          +0.9% (  9.4%)     13.6%
 EFFECTIVE MASS      1.3629
 FORCE CONSTANT      3.7867

 VIBRATION        191  191A           ATOM PAIR      ENERGY CONTRIBUTION    RADIAL
 FREQUENCY          2772.29         C 15 -- H 18         +53.7% ( 74.0%)    100.0%
 TRANSITION DIPOLE   0.9911         C 13 -- H 17         +37.5% ( 61.8%)    100.0%
 TRAVEL (Ang.)       0.2401         C 12 -- H 16          +4.0% ( 20.2%)     99.8%
 REDUCED MASS        0.4219         C 11 -- H 14          +1.8% ( 13.4%)     99.8%
 EFFECTIVE MASS      1.4334
 FORCE CONSTANT      1.9104

 VIBRATION        192  192A           ATOM PAIR      ENERGY CONTRIBUTION    RADIAL
 FREQUENCY          2777.65         C 45 -- H 58         +38.0% ( 59.3%)     96.4%
 TRANSITION DIPOLE   0.4102         C 45 -- H 60         +31.8% ( 54.2%)     95.2%
 TRAVEL (Ang.)       0.2779         C 45 -- H 59         +27.0% ( 50.0%)     94.4%
 REDUCED MASS        0.3143         C 44 -- H 57          +2.5% ( 15.3%)     95.9%
 EFFECTIVE MASS      1.1535
 FORCE CONSTANT      1.4286

 VIBRATION        193  193A           ATOM PAIR      ENERGY CONTRIBUTION    RADIAL
 FREQUENCY          2779.66         C 49 -- H 67         +29.5% ( 52.1%)     96.4%
 TRANSITION DIPOLE   0.5108         C 49 -- H 66         +28.4% ( 51.1%)     96.2%
 TRAVEL (Ang.)       0.3417         C 49 -- H 68         +18.8% ( 41.6%)     93.4%
 REDUCED MASS        0.2078         C 48 -- H 64          +5.3% ( 22.0%)     95.8%
 EFFECTIVE MASS      1.1348
 FORCE CONSTANT      0.9460

 VIBRATION        194  194A           ATOM PAIR      ENERGY CONTRIBUTION    RADIAL
 FREQUENCY          2779.90         C 24 -- H 26         +31.5% ( 53.9%)     96.2%
 TRANSITION DIPOLE   0.3215         C 24 -- H 25         +30.0% ( 52.5%)     95.7%
 TRAVEL (Ang.)       0.3009         C 24 -- H 27         +28.5% ( 51.2%)     95.6%
 REDUCED MASS        0.2679         C 49 -- H 67          +2.5% ( 15.2%)     96.3%
 EFFECTIVE MASS      1.1310
 FORCE CONSTANT      1.2199

 VIBRATION        195  195A           ATOM PAIR      ENERGY CONTRIBUTION    RADIAL
 FREQUENCY          2783.68         C 48 -- H 63         +28.5% ( 51.3%)     95.7%
 TRANSITION DIPOLE   0.5106         C 48 -- H 65         +28.4% ( 51.2%)     95.7%
 TRAVEL (Ang.)       0.3205         C 48 -- H 64         +26.2% ( 49.1%)     95.2%
 REDUCED MASS        0.2358         C 49 -- H 67          +6.2% ( 23.8%)     95.9%
 EFFECTIVE MASS      1.1386
 FORCE CONSTANT      1.0767

 VIBRATION        196  196A           ATOM PAIR      ENERGY CONTRIBUTION    RADIAL
 FREQUENCY          2784.93         C 20 -- H 23         +30.0% ( 52.6%)     96.2%
 TRANSITION DIPOLE   0.3756         C 20 -- H 21         +26.3% ( 49.2%)     95.9%
 TRAVEL (Ang.)       0.3240         C 20 -- H 22         +25.6% ( 48.6%)     95.3%
 REDUCED MASS        0.2307         C 28 -- H 31          +6.0% ( 23.6%)     96.6%
 EFFECTIVE MASS      1.1312
 FORCE CONSTANT      1.0541

 VIBRATION        197  197A           ATOM PAIR      ENERGY CONTRIBUTION    RADIAL
 FREQUENCY          2787.49         C 28 -- H 31         +29.9% ( 52.5%)     96.3%
 TRANSITION DIPOLE   0.2885         C 28 -- H 30         +29.3% ( 51.9%)     96.4%
 TRAVEL (Ang.)       0.3223         C 28 -- H 29         +22.9% ( 45.9%)     94.4%
 REDUCED MASS        0.2328         C 20 -- H 23          +6.0% ( 23.5%)     95.9%
 EFFECTIVE MASS      1.1358
 FORCE CONSTANT      1.0659

 VIBRATION        198  198A           ATOM PAIR      ENERGY CONTRIBUTION    RADIAL
 FREQUENCY          2800.60         C  2 -- H  4         +96.1% ( 99.2%)    100.0%
 TRANSITION DIPOLE   1.0961         C  1 -- C  2          +1.3% ( 11.6%)     44.7%
 TRAVEL (Ang.)       0.1631         C  2 -- C  5          +1.3% ( 11.5%)     23.5%
 REDUCED MASS        0.9049         C 40 -- H 52          +0.7% (  8.5%)     99.5%
 EFFECTIVE MASS      1.4332
 FORCE CONSTANT      4.1816

           FORCE CONSTANT IN CARTESIAN COORDINATES (Millidynes/A)

    ATOM   CHEMICAL       X               Y               Z
   NUMBER   SYMBOL  FORCE CONSTANT  FORCE CONSTANT  FORCE CONSTANT

      1       C       11.502584        7.114288        1.871386
      2       C       11.833129        8.009688        2.918837
      3       H        2.055921        2.876961        0.565415
      4       H        2.149388        2.695811        0.646448
      5       C       14.632973        8.261157        3.178127
      6       O       11.074260        3.136764        0.680663
      7       C       15.293997        7.283776        3.379631
      8       O       12.263106        2.387465        0.892837
      9       C        4.653817       10.740542        9.477350
     10       C        4.254824       10.119622        9.488946
     11       C        4.168481       11.409738        7.870281
     12       C        4.197471       11.062381        8.093691
     13       C        4.460884       10.649302        8.819583
     14       H        1.236383        1.055574        3.227097
     15       C        4.621474        9.986758        9.185810
     16       H        1.197855        1.172780        3.258674
     17       H        1.120880        2.761175        1.703595
     18       H        0.540523        3.887193        1.170441
     19       C        7.277220        7.765746        7.180316
     20       C        6.524947        6.463197        6.442868
     21       H        1.001642        1.144850        3.303717
     22       H        1.540910        3.335861        0.574626
     23       H        1.367284        1.744026        2.355311
     24       C        6.468029        6.624827        6.347975
     25       H        3.852604        0.796665        0.810419
     26       H        0.708179        2.478690        2.280876
     27       H        1.603495        2.762563        1.080035
     28       C        6.485536        6.509269        6.574317
     29       H        3.996527        0.774491        0.696123
     30       H        1.163644        1.707696        2.668402
     31       H        0.626683        1.952514        2.903837
     32       N        8.480817       10.715112        3.462352
     33       C        3.638713        8.236541       14.691074
     34       O        0.606145        1.808881       12.669813
     35       H        0.696722        3.162721        1.289201
     36       O        2.029027        5.982861        5.530289
     37       H        0.838439        2.631052        0.960632
     38       C        6.959830        7.488747        6.244731
     39       C       11.215245       10.807629        3.289082
     40       C       11.041414        9.660345        2.186341
     41       C       12.762206       10.636209        2.818921
     42       C        7.213181        7.143705        6.309772
     43       C        7.076048        6.925946        6.669865
     44       C        9.680879        9.551901        1.842462
     45       C        7.509874        6.406701        6.101655
     46       N       12.275631        8.292211        1.732768
     47       C        7.363426        7.481601        7.048769
     48       C        6.525147        6.478312        6.513747
     49       C        6.568208        6.481739        6.509888
     50       H        2.877541        0.854018        1.838699
     51       H        1.170147        1.059559        3.212813
     52       H        1.462084        3.758049        0.394262
     53       H        2.071964        2.542573        0.965507
     54       H        0.773362        0.845311        3.846266
     55       H        0.897799        0.705984        4.036072
     56       H        1.392874        3.536802        0.692926
     57       H        1.377474        3.680217        0.626864
     58       H        1.337425        3.180697        0.929671
     59       H        1.197757        2.310828        1.911831
     60       H        1.391167        0.667302        3.322054
     61       H        2.140530        2.931316        0.581192
     62       H        2.087268        2.877784        0.833564
     63       H        1.674605        2.939393        0.812253
     64       H        1.843854        0.621754        2.964395
     65       H        2.035691        2.678642        0.729476
     66       H        2.181207        2.522816        0.733461
     67       H        1.596468        3.120944        0.700909
     68       H        1.572046        0.590996        3.228182

 **********************
 *                    *
 * JOB ENDED NORMALLY *
 *                    *
 **********************



 TOTAL JOB TIME:            39.68 SECONDS

 == MOPAC DONE ==
