169
	Energy: -2383116.6281643
C         -0.39490       -1.60775       -1.63508
C          0.00536       -1.35632       -0.13562
C          0.07930       -2.91733       -2.25069
C          1.27309       -2.02879        0.44843
N         -1.13859       -1.73272        0.76953
H          0.08325       -0.27328       -0.03415
N          0.02680       -0.52273       -2.51017
H         -1.48919       -1.63495       -1.66538
C          1.43843       -3.17376       -2.63001
C         -0.84869       -3.89346       -2.50033
C          0.91121       -2.88943        1.66263
H          1.76257       -2.66973       -0.27668
H          1.99962       -1.26647        0.72794
C         -1.40825       -3.20297        0.82669
C         -0.87907       -1.23588        2.15423
C         -0.54282        0.66771       -2.72381
H          0.88723       -0.67239       -3.01003
C          2.50459       -2.25346       -2.48094
C          1.72728       -4.45373       -3.17812
C         -0.44851       -5.12712       -3.05980
H         -1.89665       -3.71707       -2.28068
C         -0.11739       -3.93410        1.21783
C          0.29710       -2.02229        2.78109
H          1.81039       -3.38220        2.03098
H         -1.81048       -3.51107       -0.13330
H         -2.20011       -3.33360        1.56543
H         -0.65989       -0.17142        2.07330
H         -1.80654       -1.36830        2.71228
C          0.23301        1.52973       -3.68610
C         -1.72751        1.10424       -2.15525
C          3.78660       -2.58045       -2.85016
H          2.36919       -1.27891       -2.02631
C          3.06309       -4.76605       -3.52844
N          0.78520       -5.41572       -3.38039
H         -1.19473       -5.89564       -3.24274
H          0.27583       -4.49549        0.36632
H         -0.32036       -4.64621        2.01998
C          1.29840       -1.09682        3.41206
H         -0.08769       -2.69478        3.55414
C         -0.63701        2.58893       -4.34850
H          1.05581        1.97936       -3.11999
H          0.69696        0.89080       -4.44323
C         -2.25341        2.38604       -2.44047
H         -2.28302        0.44115       -1.50205
C          4.07709       -3.86297       -3.37134
O          4.71579       -1.60919       -2.69511
H          3.25265       -5.75389       -3.93044
C          1.68467       -1.16338        4.67996
H          1.72446       -0.33016        2.76743
C         -1.46771        3.33714       -3.31246
H         -0.00996        3.28694       -4.90772
H         -1.30637        2.10499       -5.06691
C         -3.44177        2.83484       -1.87139
H          5.08807       -4.13126       -3.64845
C          6.08805       -1.96852       -2.64151
H          1.27720       -1.90589        5.36064
H          2.42069       -0.47536        5.08087
H         -0.81593        3.96006       -2.68986
H         -2.15427        4.02832       -3.80475
H          6.25610       -2.73663       -1.88255
H          6.45177       -2.30494       -3.61694
H          6.61516       -1.05883       -2.35766
C         -2.75722        3.36219        0.10534
C         -2.22800        2.27936        0.78445
C         -1.62685        4.31074       -0.18487
H         -3.74948        3.76924        0.23588
C         -0.81516        2.41792        0.81195
H         -2.75182        1.42522        1.18245
N         -0.47724        3.65832        0.24124
O         -1.67018        5.41262       -0.67662
O          0.04838        1.67171        1.30230
C          0.85431        4.17533        0.21113
C          1.54478        3.97817       -0.98209
C          1.47306        4.78214        1.31894
C          2.86993        4.34279       -1.12457
H          1.01876        3.49202       -1.79025
C          0.83867        5.03252        2.70472
C          2.82258        5.12104        1.14566
C          3.51408        4.91098       -0.03666
H          3.39801        4.16023       -2.05250
C          1.20841        3.85294        3.62382
C         -0.69180        5.19746        2.68837
C          1.39986        6.33191        3.31979
H          3.36505        5.56196        1.97046
H          4.56023        5.18489       -0.10466
H          2.29424        3.75029        3.70774
H          0.80171        4.01899        4.62655
H          0.80549        2.91456        3.23786
H         -1.01038        5.91130        1.92489
H         -1.01195        5.58389        3.65952
H         -1.22212        4.25770        2.53780
H          0.87881        6.53754        4.25823
H          1.24578        7.18364        2.65148
H          2.46286        6.26814        3.55754
C          6.77600        3.31832       -0.69381
C          6.04651        2.31591       -0.06395
C          6.69160        3.48566       -2.07031
H          7.40940        3.97193       -0.10459
C          5.23095        1.47045       -0.80727
H          6.12318        2.19132        1.00963
C          5.88359        2.63509       -2.81842
H          7.25921        4.26876       -2.55986
C          4.36803        0.40441       -0.14723
C          5.15684        1.63262       -2.19046
H          5.82268        2.75031       -3.89480
N          4.81760        0.00233        1.16132
C          2.92832        0.91597       -0.11484
H          4.37197       -0.48296       -0.78175
H          4.53382        0.96072       -2.76947
C          5.03941       -1.30998        1.45737
H          4.61604        0.60797        1.94100
O          2.58464        1.40459        1.05544
O          2.20288        0.86527       -1.08391
O          5.22415       -1.43516        2.77720
O          5.07385       -2.20582        0.63905
H          1.61261        1.65649        1.07127
C          5.54225       -2.72388        3.39116
C          5.67800       -2.36398        4.86545
C          6.86135       -3.25551        2.83964
C          4.39039       -3.70203        3.18704
H          4.74216       -1.94318        5.24030
H          5.91621       -3.25821        5.44571
H          6.47505       -1.63123        5.00957
H          7.64583       -2.50206        2.94709
H          7.15766       -4.14192        3.40597
H          6.76776       -3.52485        1.78849
H          3.46495       -3.26703        3.57234
H          4.59584       -4.62227        3.73976
H          4.26475       -3.94640        2.13265
O         -3.44547       -0.80044        0.03783
C         -4.05439       -1.74183       -0.56493
H         -2.02783       -1.26075        0.41867
C         -5.42542       -2.09488        0.05461
O         -3.61809       -2.42149       -1.49631
N         -6.04003       -0.89528        0.57752
C         -5.09952       -3.13197        1.11715
H         -6.07840       -2.52128       -0.70538
C         -7.22033       -0.43304        0.08065
H         -5.38208       -0.19277        0.88542
C         -4.89061       -2.76472        2.44414
C         -4.85857       -4.45103        0.73423
O         -7.37929        0.85041        0.45001
O         -8.00318       -1.08697       -0.57416
C         -4.43889       -3.69797        3.37162
H         -5.08695       -1.74502        2.75356
C         -4.40799       -5.38432        1.65899
H         -5.00683       -4.73814       -0.30100
C         -8.54521        1.62328        0.03622
C         -4.18926       -5.00892        2.98102
H         -4.28202       -3.39896        4.40221
H         -4.22607       -6.40678        1.34727
C         -8.27604        2.99103        0.65289
C         -9.81701        1.01327        0.61860
C         -8.59761        1.72472       -1.48583
H         -3.83607       -5.73602        3.70344
H         -7.35091        3.41577        0.25577
H         -9.09805        3.67224        0.42149
H         -8.18439        2.90970        1.73826
H         -9.72190        0.90923        1.70255
H        -10.66372        1.67229        0.40994
H        -10.01552        0.03483        0.18383
H         -7.65144        2.11426       -1.87023
H         -9.39531        2.41377       -1.77500
H         -8.79072        0.75273       -1.93711
C         -4.55131        1.91427       -1.43171
H         -5.04894        1.47721       -2.30471
H         -4.18926        1.09094       -0.81583
H         -5.31023        2.45582       -0.86132
H         -3.76123        3.82392       -2.19206
