 *******************************************************************************
 ** Site#: 36969        For non-commercial use only    Version 21.051W 64BITS **
 *******************************************************************************
 ** Cite this program as: MOPAC2016, Version: 21.051W, James J. P. Stewart,   **
 ** Stewart Computational Chemistry, web: HTTP://OpenMOPAC.net. Days left: 282**
 *******************************************************************************
 **                                                                           **
 **                                MOPAC2016                                  **
 **                                                                           **
 *******************************************************************************

                              PM7 CALCULATION RESULTS

 *******************************************************************************
 *  CALCULATION DONE:                                Fri May 14 11:02:10 2021  *
 *  PM7        - The PM7 Hamiltonian to be used
 *  LET        - OVERRIDE SOME SAFETY CHECKS
 *  FORCE      - FORCE CALCULATION SPECIFIED
 *  T=         - A TIME OF 172800.0 SECONDS REQUESTED
 *  DUMP=N     - RESTART FILE WRITTEN EVERY 7200.0 SECONDS REQUESTED
 *******************************************************************************
PM7 FORCE LET
 Structure 1 - TS - Rel. E. = 0.0 kcal/mol

   ATOM   CHEMICAL          X               Y               Z
  NUMBER   SYMBOL      (ANGSTROMS)     (ANGSTROMS)     (ANGSTROMS)
 
     1       C          0.60086000  *  -1.15701000  *  -0.60103000  *
     2       C          1.69699000  *  -1.05988000  *  -1.43217000  *
     3       H         -0.42480000  *  -1.34013000  *  -0.88445000  *
     4       H          1.71642000  *  -0.82850000  *  -2.47469000  *
     5       C          2.91295000  *  -1.30556000  *  -0.67254000  *
     6       O          4.08313000  *  -1.17220000  *  -1.00023000  *
     7       C          1.09711000  *  -1.62560000  *   0.75397000  *
     8       O          0.50232000  *  -1.86655000  *   1.76573000  *
     9       C          3.38213000  *  -2.22181000  *   1.64735000  *
    10       C          4.12845000  *  -3.40860000  *   1.55080000  *
    11       C          3.45347000  *  -1.41087000  *   2.79297000  *
    12       C          5.06587000  *  -3.64156000  *   2.57069000  *
    13       C          4.34424000  *  -1.70790000  *   3.81242000  *
    14       H          2.79300000  *  -0.54740000  *   2.88069000  *
    15       C          5.17987000  *  -2.81510000  *   3.68130000  *
    16       H          5.73553000  *  -4.49958000  *   2.49667000  *
    17       H          4.39364000  *  -1.08058000  *   4.69875000  *
    18       H          5.91330000  *  -3.03896000  *   4.45231000  *
    19       C          4.01488000  *  -4.45796000  *   0.45451000  *
    20       C          5.11180000  *  -4.19037000  *  -0.58756000  *
    21       H          4.92356000  *  -3.26562000  *  -1.14700000  *
    22       H          6.09464000  *  -4.07395000  *  -0.11540000  *
    23       H          5.17720000  *  -5.00430000  *  -1.31502000  *
    24       C          4.22739000  *  -5.86721000  *   1.05844000  *
    25       H          3.56406000  *  -6.02907000  *   1.91464000  *
    26       H          4.01296000  *  -6.64692000  *   0.31976000  *
    27       H          5.25851000  *  -6.02540000  *   1.38687000  *
    28       C          2.63812000  *  -4.49440000  *  -0.22994000  *
    29       H          1.82850000  *  -4.38708000  *   0.50023000  *
    30       H          2.52860000  *  -3.71310000  *  -0.98772000  *
    31       H          2.48172000  *  -5.44369000  *  -0.75475000  *
    32       N          2.51448000  *  -1.75981000  *   0.62020000  *
    33       C          6.91998000  *  -0.41688000  *   0.66907000  *
    34       O          6.66914000  *   0.72137000  *   0.32751000  *
    35       H          7.79563000  *  -0.72206000  *   1.24468000  *
    36       O          6.15867000  *  -1.45262000  *   0.40075000  *
    37       H          5.26412000  *  -1.29359000  *  -0.15907000  *
    38       C          1.44756000  *   1.55405000  *   1.75288000  *
    39       C          1.15755000  *   1.34751000  *   0.29671000  *
    40       C          2.16615000  *   1.58364000  *  -0.65952000  *
    41       C          3.50563000  *   1.69876000  *  -0.30770000  *
    42       C          3.89858000  *   1.64905000  *   1.14687000  *
    43       C          2.78641000  *   2.25698000  *   2.00245000  *
    44       C         -0.05788000  *   0.82048000  *  -0.10777000  *
    45       C         -1.19293000  *   0.62037000  *   0.84183000  *
    46       N          4.52829000  *   1.82382000  *  -1.17658000  *
    47       C          4.37213000  *   1.89117000  *  -2.64231000  *
    48       C          4.90061000  *   3.25506000  *  -3.11420000  *
    49       C          5.15639000  *   0.74609000  *  -3.29300000  *
    50       H          0.62738000  *   2.14702000  *   2.21280000  *
    51       H          1.41668000  *   0.57436000  *   2.28162000  *
    52       H          1.87155000  *   1.62369000  *  -1.70345000  *
    53       H          4.86317000  *   2.16862000  *   1.33464000  *
    54       H          4.09419000  *   0.59072000  *   1.43443000  *
    55       H          2.68895000  *   3.33659000  *   1.76960000  *
    56       H          3.05495000  *   2.19889000  *   3.07403000  *
    57       H         -0.35516000  *   0.92794000  *  -1.15220000  *
    58       H         -2.04487000  *   0.11846000  *   0.36659000  *
    59       H         -0.91272000  *   0.00904000  *   1.71425000  *
    60       H         -1.56279000  *   1.58129000  *   1.22719000  *
    61       H          5.48297000  *   1.64385000  *  -0.83749000  *
    62       H          3.28680000  *   1.79887000  *  -2.91572000  *
    63       H          4.80300000  *   3.35748000  *  -4.19963000  *
    64       H          4.34783000  *   4.07859000  *  -2.64661000  *
    65       H          5.95880000  *   3.38887000  *  -2.86170000  *
    66       H          6.22907000  *   0.80542000  *  -3.07886000  *
    67       H          5.03209000  *   0.74962000  *  -4.37980000  *
    68       H          4.80918000  *  -0.23220000  *  -2.92177000  *
 


          CARTESIAN COORDINATES 

    NO.       ATOM           X           Y           Z

     1         C          0.6009     -1.1570     -0.6010
     2         C          1.6970     -1.0599     -1.4322
     3         H         -0.4248     -1.3401     -0.8844
     4         H          1.7164     -0.8285     -2.4747
     5         C          2.9129     -1.3056     -0.6725
     6         O          4.0831     -1.1722     -1.0002
     7         C          1.0971     -1.6256      0.7540
     8         O          0.5023     -1.8666      1.7657
     9         C          3.3821     -2.2218      1.6474
    10         C          4.1284     -3.4086      1.5508
    11         C          3.4535     -1.4109      2.7930
    12         C          5.0659     -3.6416      2.5707
    13         C          4.3442     -1.7079      3.8124
    14         H          2.7930     -0.5474      2.8807
    15         C          5.1799     -2.8151      3.6813
    16         H          5.7355     -4.4996      2.4967
    17         H          4.3936     -1.0806      4.6988
    18         H          5.9133     -3.0390      4.4523
    19         C          4.0149     -4.4580      0.4545
    20         C          5.1118     -4.1904     -0.5876
    21         H          4.9236     -3.2656     -1.1470
    22         H          6.0946     -4.0739     -0.1154
    23         H          5.1772     -5.0043     -1.3150
    24         C          4.2274     -5.8672      1.0584
    25         H          3.5641     -6.0291      1.9146
    26         H          4.0130     -6.6469      0.3198
    27         H          5.2585     -6.0254      1.3869
    28         C          2.6381     -4.4944     -0.2299
    29         H          1.8285     -4.3871      0.5002
    30         H          2.5286     -3.7131     -0.9877
    31         H          2.4817     -5.4437     -0.7548
    32         N          2.5145     -1.7598      0.6202
    33         C          6.9200     -0.4169      0.6691
    34         O          6.6691      0.7214      0.3275
    35         H          7.7956     -0.7221      1.2447
    36         O          6.1587     -1.4526      0.4007
    37         H          5.2641     -1.2936     -0.1591
    38         C          1.4476      1.5541      1.7529
    39         C          1.1576      1.3475      0.2967
    40         C          2.1662      1.5836     -0.6595
    41         C          3.5056      1.6988     -0.3077
    42         C          3.8986      1.6491      1.1469
    43         C          2.7864      2.2570      2.0025
    44         C         -0.0579      0.8205     -0.1078
    45         C         -1.1929      0.6204      0.8418
    46         N          4.5283      1.8238     -1.1766
    47         C          4.3721      1.8912     -2.6423
    48         C          4.9006      3.2551     -3.1142
    49         C          5.1564      0.7461     -3.2930
    50         H          0.6274      2.1470      2.2128
    51         H          1.4167      0.5744      2.2816
    52         H          1.8716      1.6237     -1.7035
    53         H          4.8632      2.1686      1.3346
    54         H          4.0942      0.5907      1.4344
    55         H          2.6890      3.3366      1.7696
    56         H          3.0549      2.1989      3.0740
    57         H         -0.3552      0.9279     -1.1522
    58         H         -2.0449      0.1185      0.3666
    59         H         -0.9127      0.0090      1.7143
    60         H         -1.5628      1.5813      1.2272
    61         H          5.4830      1.6439     -0.8375
    62         H          3.2868      1.7989     -2.9157
    63         H          4.8030      3.3575     -4.1996
    64         H          4.3478      4.0786     -2.6466
    65         H          5.9588      3.3889     -2.8617
    66         H          6.2291      0.8054     -3.0789
    67         H          5.0321      0.7496     -4.3798
    68         H          4.8092     -0.2322     -2.9218

 General Reference for PM7:
 "Optimization of Parameters for Semiempirical Methods VI: More Modifications to the 
 NDDO Approximations and Re-optimization of Parameters", J. J. P. Stewart, J. Mol. Mod., 1:32, 19 (2013)
 https://link.springer.com/article/10.1007/s00894-012-1667-x

           Empirical Formula: C26 H36 N2 O4  =    68 atoms



      MOLECULAR POINT GROUP   :   C1  


      RHF CALCULATION, NO. OF DOUBLY OCCUPIED LEVELS = 87



          HEAT OF FORMATION =    -159.182689 KCALS/MOLE


          CARTESIAN COORDINATE DERIVATIVES

   NUMBER  ATOM         X            Y            Z

     1       C     -2.187977    -0.927812     6.179813
     2       C      0.048130    -0.068562     0.084802
     3       H      0.097459    -0.033074     0.075717
     4       H      0.165323    -0.015403    -0.011695
     5       C     -0.099026    -0.002220     0.052869
     6       O      3.948109   -12.756586    -3.500039
     7       C     -0.036796    -0.346557     0.032133
     8       O     -0.035109     0.153972     0.031205
     9       C      0.019219    -0.018592    -0.039809
    10       C      0.029533     0.039635    -0.079694
    11       C     -0.047979     0.014934     0.028644
    12       C      0.019576    -0.039602    -0.054313
    13       C      0.022235    -0.056204    -0.087381
    14       H      0.011313    -0.012453    -0.054182
    15       C     -0.128243    -0.031842    -0.008406
    16       H      0.003662    -0.101192     0.051235
    17       H     -0.015779     0.120272    -0.027902
    18       H     -0.084455    -0.000046     0.046802
    19       C     -0.040582    -0.015318    -0.024427
    20       C      0.029479     0.030181    -0.073195
    21       H      0.064701    -0.064435    -0.032515
    22       H      0.050072    -0.016778     0.005446
    23       H      0.007105     0.029770    -0.035171
    24       C     -0.000713     0.048084    -0.017600
    25       H      0.033386     0.105751     0.057780
    26       H     -0.012850    -0.001112     0.036398
    27       H      0.002483     0.051480     0.068230
    28       C      0.006828     0.006728    -0.051310
    29       H      0.067824     0.035921    -0.013927
    30       H      0.063056    -0.011965    -0.062460
    31       H      0.016052     0.017618     0.016155
    32       N     -0.046468    -0.087640    -0.081028
    33       C      0.068081    -0.056293     0.209952
    34       O     -0.089941     0.353346     0.048171
    35       H      0.015763    -0.046403    -0.111645
    36       O      0.053343    -0.168383     0.209647
    37       H     -4.018945    12.746537     3.519689
    38       C     -0.033562     0.013240     0.029773
    39       C      0.043809    -0.004298     0.090440
    40       C     -0.107665     0.095387    -0.022863
    41       C      0.080003    -0.084530    -0.048348
    42       C      0.011255     0.018946     0.008397
    43       C      0.019567     0.008021     0.028073
    44       C      2.125429     0.998487    -6.431035
    45       C     -0.047046     0.004246    -0.010824
    46       N      0.012550     0.054182     0.102066
    47       C     -0.065174     0.102101    -0.006502
    48       C      0.004907     0.060374    -0.024769
    49       C     -0.040443     0.065565     0.038349
    50       H     -0.021042    -0.022338     0.043862
    51       H     -0.015282     0.029091    -0.068238
    52       H     -0.012146    -0.009059     0.009016
    53       H     -0.010097     0.012901    -0.045323
    54       H     -0.020943     0.009976    -0.006534
    55       H      0.054268     0.001943    -0.008330
    56       H     -0.022815    -0.030080     0.012951
    57       H     -0.010369     0.055544     0.103216
    58       H     -0.042755     0.009374     0.050763
    59       H      0.006395    -0.087027     0.045689
    60       H     -0.023670    -0.017380     0.063363
    61       H      0.080676    -0.478704    -0.342389
    62       H      0.030488     0.200618     0.038601
    63       H      0.025504     0.016058    -0.007221
    64       H     -0.004402    -0.028306    -0.010430
    65       H     -0.028947     0.006418    -0.003303
    66       H     -0.013400     0.072364     0.009156
    67       H     -0.000450     0.042361    -0.021465
    68       H      0.027867     0.009146    -0.003720
 


          GRADIENT NORM =  21.76037



 ** GRADIENT IS VERY LARGE, BUT SINCE "LET" IS USED, CALCULATION WILL CONTINUE


          TIME FOR SCF CALCULATION =    0.07

          TIME FOR DERIVATIVES     =    0.06

          MOLECULAR WEIGHT =  440.58



          ROTATIONAL CONSTANTS IN CM(-1)

          A =    0.00613782   B =    0.00458428   C =    0.00375842



           PRINCIPAL MOMENTS OF INERTIA IN UNITS OF 10**(-40)*GRAM-CM**2

          A =     4560.7002   B =     6106.2532   C =     7448.0108


          ORIENTATION OF MOLECULE IN FORCE CALCULATION

    NO.       ATOM         X         Y         Z

     1          C      -1.6752    2.4522    0.1615
     2          C      -0.2961    2.4522    0.1615
     3          H      -2.3325    3.3088    0.1615
     4          H       0.3639    3.2310    0.4756
     5          C       0.1952    1.1746   -0.3305
     6          O       1.3322    0.7258   -0.3491
     7          C      -2.1304    1.1606   -0.4914
     8          O      -3.2299    0.7458   -0.7248
     9          C      -0.8946   -0.7952   -1.5026
    10          C      -0.3268   -0.9675   -2.7764
    11          C      -1.4712   -1.8756   -0.8130
    12          C      -0.2127   -2.2901   -3.2357
    13          C      -1.3985   -3.1602   -1.3283
    14          H      -1.9882   -1.6951    0.1302
    15          C      -0.7333   -3.3701   -2.5344
    16          H       0.3037   -2.4876   -4.1761
    17          H      -1.8493   -3.9926   -0.7939
    18          H      -0.6308   -4.3769   -2.9324
    19          C       0.1698    0.1366   -3.6986
    20          C       1.6886    0.2763   -3.5128
    21          H       1.9413    0.6830   -2.5257
    22          H       2.1934   -0.6943   -3.5881
    23          H       2.1217    0.9450   -4.2619
    24          C      -0.1245   -0.2423   -5.1702
    25          H      -1.1792   -0.5060   -5.3019
    26          H       0.0953    0.5943   -5.8421
    27          H       0.4860   -1.0832   -5.5110
    28          C      -0.5146    1.4942   -3.4664
    29          H      -1.5906    1.3733   -3.3000
    30          H      -0.0899    2.0349   -2.6156
    31          H      -0.3895    2.1541   -4.3324
    32          N      -0.9326    0.4556   -0.8278
    33          C       2.6342   -2.3856   -0.1799
    34          O       2.7209   -2.1491    1.0083
    35          H       2.9618   -3.3079   -0.6629
    36          O       2.1179   -1.5601   -1.0610
    37          H       1.7554   -0.6158   -0.7204
    38          C      -2.2299   -0.3457    2.5006
    39          C      -1.5974    1.0130    2.4660
    40          C      -0.2027    1.1414    2.6269
    41          C       0.6580    0.0571    2.5063
    42          C       0.0902   -1.3198    2.2731
    43          C      -1.2666   -1.4424    2.9677
    44          C      -2.3568    2.1320    2.1666
    45          C      -3.8454    2.0773    2.0610
    46          N       2.0034    0.1257    2.5482
    47          C       2.7674    1.3695    2.7638
    48          C       3.5679    1.2156    4.0667
    49          C       3.7023    1.6080    1.5726
    50          H      -3.1173   -0.3235    3.1699
    51          H      -2.6421   -0.5905    1.4954
    52          H       0.1951    2.1363    2.8005
    53          H       0.7803   -2.1184    2.6219
    54          H      -0.0022   -1.4938    1.1766
    55          H      -1.1277   -1.3729    4.0655
    56          H      -1.7031   -2.4410    2.7779
    57          H      -1.9560    3.1181    2.4070
    58          H      -4.2715    3.0350    1.7371
    59          H      -4.1915    1.3182    1.3417
    60          H      -4.3040    1.8354    3.0304
    61          H       2.5452   -0.6754    2.1968
    62          H       2.0630    2.2387    2.8614
    63          H       4.1518    2.1178    4.2753
    64          H       2.9047    1.0378    4.9217
    65          H       4.2663    0.3723    4.0158
    66          H       4.4300    0.7985    1.4495
    67          H       4.2588    2.5427    1.6880
    68          H       3.1337    1.6737    0.6304


    FIRST DERIVATIVES WILL BE USED IN THE CALCULATION OF SECOND DERIVATIVES

          ESTIMATED TIME TO COMPLETE CALCULATION =       52.59 SECONDS

    FOR POINT-GROUP C1   THERE ARE   1 UNIQUE SYMMETRY FUNCTIONS.

 STEP:   1 TIME =     0.16 SECS, INTEGRAL =      0.16 TIME LEFT: 172799.71
 STEP:   2 TIME =     0.16 SECS, INTEGRAL =      0.32 TIME LEFT: 172799.55
 STEP:   3 TIME =     0.16 SECS, INTEGRAL =      0.48 TIME LEFT: 172799.39
 STEP:   4 TIME =     0.21 SECS, INTEGRAL =      0.70 TIME LEFT: 172799.18
 STEP:   5 TIME =     0.18 SECS, INTEGRAL =      0.88 TIME LEFT: 172799.00
 STEP:   6 TIME =     0.18 SECS, INTEGRAL =      1.05 TIME LEFT: 172798.82
 STEP:   7 TIME =     0.13 SECS, INTEGRAL =      1.19 TIME LEFT: 172798.68
 STEP:   8 TIME =     0.16 SECS, INTEGRAL =      1.35 TIME LEFT: 172798.52
 STEP:   9 TIME =     0.19 SECS, INTEGRAL =      1.54 TIME LEFT: 172798.34
 STEP:  10 TIME =     0.14 SECS, INTEGRAL =      1.67 TIME LEFT: 172798.20
 STEP:  11 TIME =     0.14 SECS, INTEGRAL =      1.82 TIME LEFT: 172798.05
 STEP:  12 TIME =     0.14 SECS, INTEGRAL =      1.95 TIME LEFT: 172797.92
 STEP:  13 TIME =     0.17 SECS, INTEGRAL =      2.12 TIME LEFT: 172797.75
 STEP:  14 TIME =     0.14 SECS, INTEGRAL =      2.27 TIME LEFT: 172797.60
 STEP:  15 TIME =     0.18 SECS, INTEGRAL =      2.45 TIME LEFT: 172797.42
 STEP:  16 TIME =     0.17 SECS, INTEGRAL =      2.62 TIME LEFT: 172797.25
 STEP:  17 TIME =     0.14 SECS, INTEGRAL =      2.75 TIME LEFT: 172797.12
 STEP:  18 TIME =     0.13 SECS, INTEGRAL =      2.89 TIME LEFT: 172796.98
 STEP:  19 TIME =     0.16 SECS, INTEGRAL =      3.05 TIME LEFT: 172796.82
 STEP:  20 TIME =     0.18 SECS, INTEGRAL =      3.22 TIME LEFT: 172796.65
 STEP:  21 TIME =     0.19 SECS, INTEGRAL =      3.41 TIME LEFT: 172796.46
 STEP:  22 TIME =     0.16 SECS, INTEGRAL =      3.58 TIME LEFT: 172796.29
 STEP:  23 TIME =     0.13 SECS, INTEGRAL =      3.71 TIME LEFT: 172796.16
 STEP:  24 TIME =     0.14 SECS, INTEGRAL =      3.85 TIME LEFT: 172796.02
 STEP:  25 TIME =     0.17 SECS, INTEGRAL =      4.02 TIME LEFT: 172795.86
 STEP:  26 TIME =     0.15 SECS, INTEGRAL =      4.17 TIME LEFT: 172795.70
 STEP:  27 TIME =     0.19 SECS, INTEGRAL =      4.36 TIME LEFT: 172795.51
 STEP:  28 TIME =     0.18 SECS, INTEGRAL =      4.54 TIME LEFT: 172795.34
 STEP:  29 TIME =     0.17 SECS, INTEGRAL =      4.70 TIME LEFT: 172795.17
 STEP:  30 TIME =     0.18 SECS, INTEGRAL =      4.89 TIME LEFT: 172794.98
 STEP:  31 TIME =     0.14 SECS, INTEGRAL =      5.03 TIME LEFT: 172794.84
 STEP:  32 TIME =     0.17 SECS, INTEGRAL =      5.20 TIME LEFT: 172794.67
 STEP:  33 TIME =     0.18 SECS, INTEGRAL =      5.39 TIME LEFT: 172794.48
 STEP:  34 TIME =     0.16 SECS, INTEGRAL =      5.55 TIME LEFT: 172794.32
 STEP:  35 TIME =     0.19 SECS, INTEGRAL =      5.74 TIME LEFT: 172794.13
 STEP:  36 TIME =     0.19 SECS, INTEGRAL =      5.93 TIME LEFT: 172793.94
 STEP:  37 TIME =     0.15 SECS, INTEGRAL =      6.08 TIME LEFT: 172793.79
 STEP:  38 TIME =     0.18 SECS, INTEGRAL =      6.26 TIME LEFT: 172793.61
 STEP:  39 TIME =     0.16 SECS, INTEGRAL =      6.42 TIME LEFT: 172793.45
 STEP:  40 TIME =     0.16 SECS, INTEGRAL =      6.59 TIME LEFT: 172793.29
 STEP:  41 TIME =     0.14 SECS, INTEGRAL =      6.73 TIME LEFT: 172793.14
 STEP:  42 TIME =     0.14 SECS, INTEGRAL =      6.88 TIME LEFT: 172793.00
 STEP:  43 TIME =     0.14 SECS, INTEGRAL =      7.02 TIME LEFT: 172792.85
 STEP:  44 TIME =     0.18 SECS, INTEGRAL =      7.20 TIME LEFT: 172792.68
 STEP:  45 TIME =     0.18 SECS, INTEGRAL =      7.38 TIME LEFT: 172792.49
 STEP:  46 TIME =     0.16 SECS, INTEGRAL =      7.54 TIME LEFT: 172792.33
 STEP:  47 TIME =     0.13 SECS, INTEGRAL =      7.68 TIME LEFT: 172792.20
 STEP:  48 TIME =     0.16 SECS, INTEGRAL =      7.84 TIME LEFT: 172792.04
 STEP:  49 TIME =     0.14 SECS, INTEGRAL =      7.97 TIME LEFT: 172791.90
 STEP:  50 TIME =     0.16 SECS, INTEGRAL =      8.13 TIME LEFT: 172791.74
 STEP:  51 TIME =     0.13 SECS, INTEGRAL =      8.26 TIME LEFT: 172791.61
 STEP:  52 TIME =     0.15 SECS, INTEGRAL =      8.41 TIME LEFT: 172791.46
 STEP:  53 TIME =     0.14 SECS, INTEGRAL =      8.55 TIME LEFT: 172791.32
 STEP:  54 TIME =     0.16 SECS, INTEGRAL =      8.71 TIME LEFT: 172791.16
 STEP:  55 TIME =     0.16 SECS, INTEGRAL =      8.87 TIME LEFT: 172791.00
 STEP:  56 TIME =     0.13 SECS, INTEGRAL =      9.00 TIME LEFT: 172790.87
 STEP:  57 TIME =     0.18 SECS, INTEGRAL =      9.18 TIME LEFT: 172790.70
 STEP:  58 TIME =     0.16 SECS, INTEGRAL =      9.33 TIME LEFT: 172790.54
 STEP:  59 TIME =     0.16 SECS, INTEGRAL =      9.50 TIME LEFT: 172790.38
 STEP:  60 TIME =     0.15 SECS, INTEGRAL =      9.64 TIME LEFT: 172790.23
 STEP:  61 TIME =     0.14 SECS, INTEGRAL =      9.79 TIME LEFT: 172790.08
 STEP:  62 TIME =     0.12 SECS, INTEGRAL =      9.91 TIME LEFT: 172789.96
 STEP:  63 TIME =     0.14 SECS, INTEGRAL =     10.05 TIME LEFT: 172789.82
 STEP:  64 TIME =     0.15 SECS, INTEGRAL =     10.20 TIME LEFT: 172789.68
 STEP:  65 TIME =     0.15 SECS, INTEGRAL =     10.35 TIME LEFT: 172789.52
 STEP:  66 TIME =     0.16 SECS, INTEGRAL =     10.51 TIME LEFT: 172789.36
 STEP:  67 TIME =     0.15 SECS, INTEGRAL =     10.66 TIME LEFT: 172789.21
 STEP:  68 TIME =     0.14 SECS, INTEGRAL =     10.80 TIME LEFT: 172789.07
 STEP:  69 TIME =     0.14 SECS, INTEGRAL =     10.94 TIME LEFT: 172788.93
 STEP:  70 TIME =     0.16 SECS, INTEGRAL =     11.10 TIME LEFT: 172788.77
 STEP:  71 TIME =     0.17 SECS, INTEGRAL =     11.27 TIME LEFT: 172788.61
 STEP:  72 TIME =     0.15 SECS, INTEGRAL =     11.42 TIME LEFT: 172788.45
 STEP:  73 TIME =     0.14 SECS, INTEGRAL =     11.55 TIME LEFT: 172788.32
 STEP:  74 TIME =     0.16 SECS, INTEGRAL =     11.72 TIME LEFT: 172788.15
 STEP:  75 TIME =     0.15 SECS, INTEGRAL =     11.87 TIME LEFT: 172788.00
 STEP:  76 TIME =     0.14 SECS, INTEGRAL =     12.01 TIME LEFT: 172787.86
 STEP:  77 TIME =     0.15 SECS, INTEGRAL =     12.16 TIME LEFT: 172787.71
 STEP:  78 TIME =     0.16 SECS, INTEGRAL =     12.32 TIME LEFT: 172787.55
 STEP:  79 TIME =     0.14 SECS, INTEGRAL =     12.46 TIME LEFT: 172787.41
 STEP:  80 TIME =     0.13 SECS, INTEGRAL =     12.60 TIME LEFT: 172787.27
 STEP:  81 TIME =     0.14 SECS, INTEGRAL =     12.73 TIME LEFT: 172787.14
 STEP:  82 TIME =     0.14 SECS, INTEGRAL =     12.88 TIME LEFT: 172786.99
 STEP:  83 TIME =     0.15 SECS, INTEGRAL =     13.03 TIME LEFT: 172786.84
 STEP:  84 TIME =     0.16 SECS, INTEGRAL =     13.19 TIME LEFT: 172786.68
 STEP:  85 TIME =     0.15 SECS, INTEGRAL =     13.34 TIME LEFT: 172786.53
 STEP:  86 TIME =     0.13 SECS, INTEGRAL =     13.48 TIME LEFT: 172786.39
 STEP:  87 TIME =     0.14 SECS, INTEGRAL =     13.61 TIME LEFT: 172786.26
 STEP:  88 TIME =     0.15 SECS, INTEGRAL =     13.76 TIME LEFT: 172786.11
 STEP:  89 TIME =     0.13 SECS, INTEGRAL =     13.89 TIME LEFT: 172785.98
 STEP:  90 TIME =     0.16 SECS, INTEGRAL =     14.05 TIME LEFT: 172785.82
 STEP:  91 TIME =     0.18 SECS, INTEGRAL =     14.23 TIME LEFT: 172785.64
 STEP:  92 TIME =     0.14 SECS, INTEGRAL =     14.38 TIME LEFT: 172785.50
 STEP:  93 TIME =     0.14 SECS, INTEGRAL =     14.52 TIME LEFT: 172785.36
 STEP:  94 TIME =     0.17 SECS, INTEGRAL =     14.68 TIME LEFT: 172785.19
 STEP:  95 TIME =     0.16 SECS, INTEGRAL =     14.85 TIME LEFT: 172785.02
 STEP:  96 TIME =     0.18 SECS, INTEGRAL =     15.02 TIME LEFT: 172784.85
 STEP:  97 TIME =     0.17 SECS, INTEGRAL =     15.20 TIME LEFT: 172784.68
 STEP:  98 TIME =     0.16 SECS, INTEGRAL =     15.36 TIME LEFT: 172784.52
 STEP:  99 TIME =     0.18 SECS, INTEGRAL =     15.54 TIME LEFT: 172784.34
 STEP: 100 TIME =     0.17 SECS, INTEGRAL =     15.70 TIME LEFT: 172784.17
 STEP: 101 TIME =     0.16 SECS, INTEGRAL =     15.87 TIME LEFT: 172784.00
 STEP: 102 TIME =     0.17 SECS, INTEGRAL =     16.04 TIME LEFT: 172783.83
 STEP: 103 TIME =     0.15 SECS, INTEGRAL =     16.19 TIME LEFT: 172783.68
 STEP: 104 TIME =     0.16 SECS, INTEGRAL =     16.36 TIME LEFT: 172783.52
 STEP: 105 TIME =     0.16 SECS, INTEGRAL =     16.52 TIME LEFT: 172783.36
 STEP: 106 TIME =     0.18 SECS, INTEGRAL =     16.70 TIME LEFT: 172783.17
 STEP: 107 TIME =     0.17 SECS, INTEGRAL =     16.87 TIME LEFT: 172783.00
 STEP: 108 TIME =     0.17 SECS, INTEGRAL =     17.04 TIME LEFT: 172782.83
 STEP: 109 TIME =     0.16 SECS, INTEGRAL =     17.20 TIME LEFT: 172782.67
 STEP: 110 TIME =     0.18 SECS, INTEGRAL =     17.38 TIME LEFT: 172782.49
 STEP: 111 TIME =     0.16 SECS, INTEGRAL =     17.54 TIME LEFT: 172782.33
 STEP: 112 TIME =     0.19 SECS, INTEGRAL =     17.73 TIME LEFT: 172782.14
 STEP: 113 TIME =     0.16 SECS, INTEGRAL =     17.89 TIME LEFT: 172781.98
 STEP: 114 TIME =     0.17 SECS, INTEGRAL =     18.05 TIME LEFT: 172781.82
 STEP: 115 TIME =     0.21 SECS, INTEGRAL =     18.27 TIME LEFT: 172781.61
 STEP: 116 TIME =     0.18 SECS, INTEGRAL =     18.45 TIME LEFT: 172781.42
 STEP: 117 TIME =     0.19 SECS, INTEGRAL =     18.64 TIME LEFT: 172781.23
 STEP: 118 TIME =     0.21 SECS, INTEGRAL =     18.85 TIME LEFT: 172781.02
 STEP: 119 TIME =     0.18 SECS, INTEGRAL =     19.03 TIME LEFT: 172780.84
 STEP: 120 TIME =     0.18 SECS, INTEGRAL =     19.21 TIME LEFT: 172780.66
 STEP: 121 TIME =     0.20 SECS, INTEGRAL =     19.41 TIME LEFT: 172780.46
 STEP: 122 TIME =     0.15 SECS, INTEGRAL =     19.56 TIME LEFT: 172780.31
 STEP: 123 TIME =     0.14 SECS, INTEGRAL =     19.70 TIME LEFT: 172780.18
 STEP: 124 TIME =     0.12 SECS, INTEGRAL =     19.81 TIME LEFT: 172780.06
 STEP: 125 TIME =     0.14 SECS, INTEGRAL =     19.96 TIME LEFT: 172779.91
 STEP: 126 TIME =     0.12 SECS, INTEGRAL =     20.08 TIME LEFT: 172779.79
 STEP: 127 TIME =     0.13 SECS, INTEGRAL =     20.21 TIME LEFT: 172779.66
 STEP: 128 TIME =     0.13 SECS, INTEGRAL =     20.35 TIME LEFT: 172779.52
 STEP: 129 TIME =     0.14 SECS, INTEGRAL =     20.48 TIME LEFT: 172779.39
 STEP: 130 TIME =     0.13 SECS, INTEGRAL =     20.61 TIME LEFT: 172779.26
 STEP: 131 TIME =     0.16 SECS, INTEGRAL =     20.77 TIME LEFT: 172779.10
 STEP: 132 TIME =     0.14 SECS, INTEGRAL =     20.91 TIME LEFT: 172778.96
 STEP: 133 TIME =     0.12 SECS, INTEGRAL =     21.04 TIME LEFT: 172778.83
 STEP: 134 TIME =     0.14 SECS, INTEGRAL =     21.18 TIME LEFT: 172778.70
 STEP: 135 TIME =     0.13 SECS, INTEGRAL =     21.30 TIME LEFT: 172778.57
 STEP: 136 TIME =     0.14 SECS, INTEGRAL =     21.45 TIME LEFT: 172778.43
 STEP: 137 TIME =     0.12 SECS, INTEGRAL =     21.57 TIME LEFT: 172778.30
 STEP: 138 TIME =     0.15 SECS, INTEGRAL =     21.72 TIME LEFT: 172778.15
 STEP: 139 TIME =     0.15 SECS, INTEGRAL =     21.87 TIME LEFT: 172778.00
 STEP: 140 TIME =     0.15 SECS, INTEGRAL =     22.02 TIME LEFT: 172777.86
 STEP: 141 TIME =     0.14 SECS, INTEGRAL =     22.15 TIME LEFT: 172777.72
 STEP: 142 TIME =     0.12 SECS, INTEGRAL =     22.27 TIME LEFT: 172777.60
 STEP: 143 TIME =     0.13 SECS, INTEGRAL =     22.40 TIME LEFT: 172777.47
 STEP: 144 TIME =     0.14 SECS, INTEGRAL =     22.54 TIME LEFT: 172777.33
 STEP: 145 TIME =     0.15 SECS, INTEGRAL =     22.69 TIME LEFT: 172777.18
 STEP: 146 TIME =     0.15 SECS, INTEGRAL =     22.84 TIME LEFT: 172777.03
 STEP: 147 TIME =     0.19 SECS, INTEGRAL =     23.03 TIME LEFT: 172776.84
 STEP: 148 TIME =     0.13 SECS, INTEGRAL =     23.16 TIME LEFT: 172776.71
 STEP: 149 TIME =     0.11 SECS, INTEGRAL =     23.27 TIME LEFT: 172776.60
 STEP: 150 TIME =     0.12 SECS, INTEGRAL =     23.39 TIME LEFT: 172776.48
 STEP: 151 TIME =     0.11 SECS, INTEGRAL =     23.50 TIME LEFT: 172776.37
 STEP: 152 TIME =     0.14 SECS, INTEGRAL =     23.65 TIME LEFT: 172776.22
 STEP: 153 TIME =     0.12 SECS, INTEGRAL =     23.77 TIME LEFT: 172776.11
 STEP: 154 TIME =     0.12 SECS, INTEGRAL =     23.88 TIME LEFT: 172775.99
 STEP: 155 TIME =     0.14 SECS, INTEGRAL =     24.02 TIME LEFT: 172775.85
 STEP: 156 TIME =     0.14 SECS, INTEGRAL =     24.16 TIME LEFT: 172775.71
 STEP: 157 TIME =     0.12 SECS, INTEGRAL =     24.28 TIME LEFT: 172775.59
 STEP: 158 TIME =     0.11 SECS, INTEGRAL =     24.39 TIME LEFT: 172775.48
 STEP: 159 TIME =     0.13 SECS, INTEGRAL =     24.52 TIME LEFT: 172775.35
 STEP: 160 TIME =     0.15 SECS, INTEGRAL =     24.68 TIME LEFT: 172775.20
 STEP: 161 TIME =     0.14 SECS, INTEGRAL =     24.82 TIME LEFT: 172775.05
 STEP: 162 TIME =     0.12 SECS, INTEGRAL =     24.93 TIME LEFT: 172774.94
 STEP: 163 TIME =     0.13 SECS, INTEGRAL =     25.07 TIME LEFT: 172774.80
 STEP: 164 TIME =     0.13 SECS, INTEGRAL =     25.20 TIME LEFT: 172774.67
 STEP: 165 TIME =     0.15 SECS, INTEGRAL =     25.35 TIME LEFT: 172774.52
 STEP: 166 TIME =     0.18 SECS, INTEGRAL =     25.53 TIME LEFT: 172774.34
 STEP: 167 TIME =     0.13 SECS, INTEGRAL =     25.66 TIME LEFT: 172774.21
 STEP: 168 TIME =     0.14 SECS, INTEGRAL =     25.80 TIME LEFT: 172774.07
 STEP: 169 TIME =     0.11 SECS, INTEGRAL =     25.91 TIME LEFT: 172773.96
 STEP: 170 TIME =     0.12 SECS, INTEGRAL =     26.03 TIME LEFT: 172773.84
 STEP: 171 TIME =     0.16 SECS, INTEGRAL =     26.19 TIME LEFT: 172773.68
 STEP: 172 TIME =     0.12 SECS, INTEGRAL =     26.31 TIME LEFT: 172773.56
 STEP: 173 TIME =     0.14 SECS, INTEGRAL =     26.45 TIME LEFT: 172773.42
 STEP: 174 TIME =     0.13 SECS, INTEGRAL =     26.58 TIME LEFT: 172773.29
 STEP: 175 TIME =     0.11 SECS, INTEGRAL =     26.70 TIME LEFT: 172773.18
 STEP: 176 TIME =     0.11 SECS, INTEGRAL =     26.80 TIME LEFT: 172773.07
 STEP: 177 TIME =     0.11 SECS, INTEGRAL =     26.91 TIME LEFT: 172772.96
 STEP: 178 TIME =     0.14 SECS, INTEGRAL =     27.05 TIME LEFT: 172772.82
 STEP: 179 TIME =     0.12 SECS, INTEGRAL =     27.18 TIME LEFT: 172772.70
 STEP: 180 TIME =     0.12 SECS, INTEGRAL =     27.30 TIME LEFT: 172772.57
 STEP: 181 TIME =     0.14 SECS, INTEGRAL =     27.44 TIME LEFT: 172772.43
 STEP: 182 TIME =     0.15 SECS, INTEGRAL =     27.59 TIME LEFT: 172772.28
 STEP: 183 TIME =     0.14 SECS, INTEGRAL =     27.73 TIME LEFT: 172772.14
 STEP: 184 TIME =     0.12 SECS, INTEGRAL =     27.86 TIME LEFT: 172772.01
 STEP: 185 TIME =     0.13 SECS, INTEGRAL =     27.99 TIME LEFT: 172771.88
 STEP: 186 TIME =     0.13 SECS, INTEGRAL =     28.12 TIME LEFT: 172771.75
 STEP: 187 TIME =     0.12 SECS, INTEGRAL =     28.23 TIME LEFT: 172771.64
 STEP: 188 TIME =     0.12 SECS, INTEGRAL =     28.36 TIME LEFT: 172771.52
 STEP: 189 TIME =     0.16 SECS, INTEGRAL =     28.52 TIME LEFT: 172771.35
 STEP: 190 TIME =     0.14 SECS, INTEGRAL =     28.66 TIME LEFT: 172771.21
 STEP: 191 TIME =     0.16 SECS, INTEGRAL =     28.81 TIME LEFT: 172771.06
 STEP: 192 TIME =     0.11 SECS, INTEGRAL =     28.93 TIME LEFT: 172770.95
 STEP: 193 TIME =     0.15 SECS, INTEGRAL =     29.08 TIME LEFT: 172770.79
 STEP: 194 TIME =     0.16 SECS, INTEGRAL =     29.23 TIME LEFT: 172770.64
 STEP: 195 TIME =     0.16 SECS, INTEGRAL =     29.39 TIME LEFT: 172770.48
 STEP: 196 TIME =     0.11 SECS, INTEGRAL =     29.51 TIME LEFT: 172770.36
 STEP: 197 TIME =     0.13 SECS, INTEGRAL =     29.64 TIME LEFT: 172770.23
 STEP: 198 TIME =     0.13 SECS, INTEGRAL =     29.77 TIME LEFT: 172770.10
 STEP: 199 TIME =     0.16 SECS, INTEGRAL =     29.93 TIME LEFT: 172769.95
 STEP: 200 TIME =     0.12 SECS, INTEGRAL =     30.05 TIME LEFT: 172769.82
 STEP: 201 TIME =     0.14 SECS, INTEGRAL =     30.19 TIME LEFT: 172769.68
 STEP: 202 TIME =     0.12 SECS, INTEGRAL =     30.31 TIME LEFT: 172769.56
 STEP: 203 TIME =     0.14 SECS, INTEGRAL =     30.45 TIME LEFT: 172769.42
 STEP: 204 TIME =     0.12 SECS, INTEGRAL =     30.58 TIME LEFT: 172769.29

(To convert to Hartree/Bohr^2, multiply by (10^(-21) x N x a0^2)/(4.184 x 627.51) =  0.0642)


           FORCE MATRIX IN MILLIDYNES/ANGSTROM


                  C  1       C  2       H  3       H  4       C  5       O  6
 ------------------------------------------------------------------------------
     C    1  13.577591
     C    2   6.999512  14.585908
     H    3   3.504349   0.702958   4.306429
     H    4   0.738579   3.598473   0.026420   4.459949
     C    5   2.359044   3.701848   0.171930   0.642463  17.932447
     O    6   0.534942   1.565597   0.061754   0.035728  10.184109  12.537256
     C    7   2.687890   1.245384   0.569476   0.104077   1.993114   0.271207
     O    8   1.018843   0.210643   0.034813   0.015710   0.379285   0.091648
     C    9   0.144634   0.124120   0.016066   0.013588   0.765932   0.114554
     C   10   0.024232   0.020054   0.003624   0.001664   0.085652   0.030405
     C   11   0.029389   0.029948   0.002910   0.003003   0.090470   0.028832
     C   12   0.010044   0.007857   0.001571   0.001458   0.048035   0.023567
     C   13   0.015706   0.014621   0.002022   0.001313   0.030762   0.012310
     H   14   0.034166   0.031602   0.003007   0.002016   0.040741   0.015019
     C   15   0.010789   0.012533   0.001865   0.000599   0.038028   0.013176
     H   16   0.002467   0.003232   0.000620   0.000739   0.013763   0.009260
     H   17   0.010565   0.010161   0.000951   0.000496   0.013316   0.004147
     H   18   0.007346   0.008466   0.001053   0.000740   0.017350   0.006716
     C   19   0.028678   0.030021   0.003297   0.004224   0.081756   0.040821
     C   20   0.040420   0.047460   0.004421   0.005512   0.115197   0.105889
     H   21   0.022256   0.028103   0.002463   0.002841   0.104629   0.052264
     H   22   0.008503   0.010251   0.001135   0.001008   0.025348   0.022793
     H   23   0.008344   0.009581   0.000819   0.001280   0.015998   0.009896
     C   24   0.021792   0.023482   0.002853   0.002690   0.046572   0.024537
     H   25   0.003819   0.004704   0.000635   0.000747   0.010822   0.005108
     H   26   0.004128   0.004506   0.000634   0.000536   0.007323   0.004212
     H   27   0.003611   0.003543   0.000595   0.000549   0.008418   0.005118
     C   28   0.058672   0.066747   0.006085   0.007816   0.090019   0.044003
     H   29   0.017480   0.017393   0.002413   0.001835   0.033287   0.011601
     H   30   0.035532   0.031262   0.003273   0.005324   0.111900   0.020845
     H   31   0.008772   0.009960   0.001101   0.001694   0.012898   0.006043
     N   32   1.206308   1.509833   0.068254   0.055806   3.757672   1.649775
     C   33   0.219956   0.237184   0.023005   0.006278   0.364748   0.519912
     O   34   0.135185   0.131870   0.014323   0.005888   0.179668   0.221589
     H   35   0.017063   0.019963   0.001843   0.000692   0.037963   0.058489
     O   36   0.205473   0.250811   0.021316   0.007481   0.510852   1.340542
     H   37   0.261960   0.355328   0.028255   0.012846   1.014450   0.798553
     C   38   0.085878   0.061875   0.011948   0.005733   0.078652   0.019132
     C   39   1.696366   1.166304   0.173201   0.092782   1.015138   0.494730
     C   40   1.162808   0.939968   0.131257   0.076268   0.895357   0.506415
     C   41   0.914746   0.777460   0.099929   0.068754   0.834339   0.528112
     C   42   0.076714   0.072017   0.008100   0.005083   0.098083   0.065044


                  C  1       C  2       H  3       H  4       C  5       O  6
 ------------------------------------------------------------------------------
     C   43   0.035276   0.029770   0.003021   0.002218   0.029687   0.012981
     C   44   1.899118   1.503627   0.528159   0.107972   1.165461   0.479589
     C   45   0.232871   0.060118   0.019326   0.006405   0.061608   0.019761
     N   46   0.489424   0.412130   0.051473   0.041333   0.450021   0.302567
     C   47   0.118022   0.097057   0.012486   0.015987   0.103275   0.063613
     C   48   0.063148   0.051915   0.007203   0.008711   0.056452   0.035107
     C   49   0.079388   0.076378   0.008741   0.015777   0.117184   0.108911
     H   50   0.021580   0.015594   0.002945   0.001504   0.015222   0.004000
     H   51   0.044752   0.033842   0.004842   0.001924   0.046807   0.010575
     H   52   0.093079   0.074754   0.011633   0.023208   0.052196   0.020037
     H   53   0.025678   0.022463   0.002710   0.001436   0.027212   0.023561
     H   54   0.046714   0.044324   0.004603   0.002065   0.072627   0.040372
     H   55   0.015615   0.012536   0.001708   0.001393   0.011420   0.005715
     H   56   0.010394   0.008908   0.001001   0.000729   0.010722   0.004394
     H   57   0.413904   0.116782   0.037172   0.013738   0.108644   0.047601
     H   58   0.019155   0.014520   0.016783   0.001849   0.012880   0.006753
     H   59   0.033232   0.025361   0.008882   0.001550   0.029531   0.007709
     H   60   0.027124   0.011701   0.002389   0.001394   0.011800   0.005661
     H   61   0.087543   0.077322   0.008966   0.006110   0.102923   0.103867
     H   62   0.018836   0.018340   0.002331   0.006526   0.015657   0.010228
     H   63   0.007907   0.006396   0.001107   0.001880   0.008050   0.005440
     H   64   0.015944   0.012998   0.001860   0.001660   0.012980   0.007500
     H   65   0.013219   0.010641   0.001574   0.001256   0.011225   0.007936
     H   66   0.009892   0.009631   0.001360   0.001608   0.023500   0.021377
     H   67   0.010765   0.010880   0.001428   0.004452   0.015015   0.010197
     H   68   0.049237   0.051797   0.004942   0.007951   0.099572   0.053656


                  C  7       O  8       C  9       C 10       C 11       C 12
 ------------------------------------------------------------------------------
     C    7  18.336787
     O    8  12.282492  14.284169
     C    9   0.757123   0.084619  15.815145
     C   10   0.083063   0.022003   5.446543  15.019447
     C   11   0.076148   0.026058   5.391674   2.236746  15.240208
     C   12   0.038421   0.012010   2.321494   5.513820   1.727595  15.036149
     C   13   0.028172   0.012411   2.318053   1.679588   6.391628   2.439015
     H   14   0.059316   0.025669   0.754625   0.084073   3.401595   0.023386
     C   15   0.034001   0.011929   1.695785   2.280024   2.432392   6.204964
     H   16   0.007696   0.003538   0.094409   0.737403   0.026717   3.420737
     H   17   0.010549   0.005195   0.097330   0.011744   0.761329   0.088704
     H   18   0.012196   0.004238   0.012854   0.093990   0.089709   0.758500
     C   19   0.046913   0.017225   0.599343   3.013723   0.083249   0.746164
     C   20   0.036732   0.014968   0.036982   0.682589   0.015166   0.049214
     H   21   0.016158   0.007724   0.011324   0.022140   0.002847   0.005505
     H   22   0.008685   0.003477   0.006759   0.043029   0.002312   0.008561
     H   23   0.003939   0.001552   0.005536   0.045034   0.002614   0.002920
     C   24   0.030096   0.012542   0.043849   0.649639   0.016628   0.122695
     H   25   0.010457   0.005765   0.006680   0.030760   0.002834   0.009997
     H   26   0.004556   0.002009   0.006208   0.046335   0.002046   0.003493
     H   27   0.005746   0.002234   0.005897   0.016165   0.002834   0.059616
     C   28   0.070366   0.032064   0.024669   0.579109   0.005951   0.041899
     H   29   0.046337   0.019507   0.025043   0.025234   0.002512   0.006719
     H   30   0.033999   0.009632   0.020260   0.009291   0.003303   0.004802
     H   31   0.009339   0.004179   0.002554   0.043870   0.001621   0.005743
     N   32   3.543501   1.825191   4.899434   0.931957   1.172936   0.128878
     C   33   0.090997   0.023528   0.027189   0.012196   0.019186   0.015466
     O   34   0.051357   0.014135   0.026143   0.008090   0.013826   0.010097
     H   35   0.006864   0.002411   0.002564   0.001663   0.001580   0.001150
     O   36   0.091915   0.032854   0.040401   0.019287   0.016649   0.014498
     H   37   0.099318   0.042903   0.084250   0.023149   0.017982   0.016535
     C   38   0.071491   0.046725   0.015230   0.002555   0.027070   0.001952
     C   39   0.294219   0.137838   0.073358   0.020420   0.027174   0.004613
     C   40   0.266841   0.099203   0.068805   0.020873   0.020073   0.005309
     C   41   0.232317   0.093464   0.071472   0.021977   0.023331   0.007099
     C   42   0.044720   0.012033   0.017586   0.004685   0.047924   0.003116
     C   43   0.014564   0.007922   0.008402   0.001475   0.007865   0.000730
     C   44   0.343981   0.151979   0.076904   0.019917   0.027009   0.003950
     C   45   0.102658   0.087167   0.009405   0.002833   0.003715   0.001914
     N   46   0.122913   0.054530   0.043416   0.013467   0.010711   0.005198
     C   47   0.032688   0.016380   0.011102   0.003529   0.003403   0.002732
     C   48   0.018672   0.009157   0.007329   0.002103   0.002363   0.001601
     C   49   0.025036   0.012802   0.010296   0.002895   0.002653   0.002355
     H   50   0.017480   0.009973   0.002729   0.001064   0.002344   0.000476
     H   51   0.079195   0.036972   0.011513   0.001909   0.029433   0.001301
     H   52   0.017405   0.006604   0.003509   0.001130   0.001720   0.000978


                  C  7       O  8       C  9       C 10       C 11       C 12
 ------------------------------------------------------------------------------
     H   53   0.008537   0.003247   0.004975   0.001349   0.004378   0.000954
     H   54   0.031895   0.008595   0.024296   0.003837   0.025400   0.002274
     H   55   0.005002   0.002830   0.002465   0.000860   0.001603   0.000336
     H   56   0.006469   0.003986   0.004478   0.000826   0.004683   0.000969
     H   57   0.027975   0.016142   0.008572   0.002526   0.002108   0.000833
     H   58   0.026922   0.014184   0.003077   0.000965   0.000776   0.000598
     H   59   0.107009   0.054086   0.005098   0.001517   0.002321   0.000995
     H   60   0.011770   0.007526   0.002115   0.000948   0.001036   0.000509
     H   61   0.033084   0.013036   0.015736   0.004502   0.005439   0.002183
     H   62   0.004786   0.001851   0.001494   0.000661   0.000570   0.000371
     H   63   0.003613   0.002019   0.001243   0.000437   0.000450   0.000376
     H   64   0.004765   0.002440   0.001625   0.000517   0.000525   0.000283
     H   65   0.004413   0.002362   0.002075   0.000610   0.000584   0.000377
     H   66   0.005487   0.002899   0.003045   0.000751   0.000822   0.000535
     H   67   0.003513   0.002116   0.001305   0.000363   0.000441   0.000511
     H   68   0.014459   0.005544   0.004941   0.001277   0.001377   0.000889


                  C 13       H 14       C 15       H 16       H 17       H 18
 ------------------------------------------------------------------------------
     C   13  15.448968
     H   14   0.761867   4.317231
     C   15   6.077916   0.096234  15.353927
     H   16   0.095249   0.010956   0.786455   4.357204
     H   17   3.481599   0.035158   0.745185   0.008252   4.397593
     H   18   0.751594   0.008082   3.479112   0.036719   0.030591   4.396950
     C   19   0.014623   0.008023   0.085860   0.052867   0.012879   0.008667
     C   20   0.010140   0.004027   0.012595   0.014288   0.004883   0.003244
     H   21   0.002695   0.001827   0.001697   0.002968   0.001385   0.001202
     H   22   0.002432   0.001454   0.002332   0.010452   0.001470   0.001657
     H   23   0.000802   0.000575   0.002575   0.003172   0.000445   0.000440
     C   24   0.012221   0.004604   0.006437   0.081927   0.003964   0.005196
     H   25   0.002314   0.001632   0.001633   0.015286   0.001588   0.001833
     H   26   0.001453   0.000351   0.001998   0.002736   0.000436   0.000623
     H   27   0.001974   0.001714   0.001768   0.039208   0.001341   0.002098
     C   28   0.006066   0.004414   0.012837   0.009969   0.003562   0.003162
     H   29   0.002430   0.001568   0.002140   0.002313   0.001294   0.001220
     H   30   0.001740   0.001722   0.001603   0.001688   0.000980   0.001038
     H   31   0.000711   0.000723   0.001601   0.001807   0.000592   0.000489
     N   32   0.118183   0.066495   0.024295   0.018074   0.015922   0.020879
     C   33   0.009926   0.015356   0.012355   0.012598   0.012907   0.010472
     O   34   0.005718   0.010537   0.006967   0.007826   0.006620   0.005618
     H   35   0.000881   0.000921   0.001962   0.001311   0.000817   0.001904
     O   36   0.013246   0.010340   0.015579   0.010383   0.010518   0.011378
     H   37   0.013805   0.009660   0.014217   0.009560   0.005029   0.008409
     C   38   0.003886   0.024248   0.002386   0.001916   0.003093   0.001399
     C   39   0.010811   0.032987   0.012443   0.002103   0.008627   0.006189
     C   40   0.009525   0.016889   0.011520   0.003105   0.007243   0.006308
     C   41   0.010378   0.017198   0.011931   0.004872   0.006470   0.007149
     C   42   0.004991   0.008101   0.003950   0.002943   0.004493   0.002314
     C   43   0.002461   0.005268   0.002072   0.001123   0.003315   0.000863
     C   44   0.012169   0.034947   0.012746   0.001529   0.009422   0.006436
     C   45   0.001933   0.004686   0.001779   0.001682   0.001424   0.001654
     N   46   0.006264   0.007174   0.007204   0.003966   0.003581   0.005051
     C   47   0.001986   0.002072   0.002516   0.002118   0.001114   0.002172
     C   48   0.000943   0.001803   0.001583   0.001264   0.000843   0.001316
     C   49   0.001866   0.001747   0.002522   0.001949   0.001482   0.001982
     H   50   0.000913   0.003577   0.000786   0.000667   0.001052   0.000582
     H   51   0.002924   0.036682   0.001732   0.001059   0.002154   0.000841
     H   52   0.000625   0.000952   0.000736   0.000666   0.000310   0.000609
     H   53   0.002007   0.003873   0.001471   0.000847   0.001936   0.001168
     H   54   0.004516   0.028576   0.003916   0.001830   0.003840   0.001228
     H   55   0.000786   0.001489   0.000924   0.000623   0.000832   0.000442
     H   56   0.001863   0.009420   0.001291   0.000636   0.003053   0.000640
     H   57   0.001527   0.002940   0.001303   0.000676   0.000969   0.000845
     H   58   0.000607   0.000570   0.000550   0.000479   0.000447   0.000499


                  C 13       H 14       C 15       H 16       H 17       H 18
 ------------------------------------------------------------------------------
     H   59   0.000965   0.003166   0.000893   0.000780   0.000669   0.000775
     H   60   0.000717   0.001452   0.000648   0.000411   0.000435   0.000478
     H   61   0.002404   0.003839   0.002591   0.001878   0.001607   0.001906
     H   62   0.000364   0.000331   0.000373   0.000211   0.000167   0.000219
     H   63   0.000235   0.000387   0.000373   0.000291   0.000266   0.000269
     H   64   0.000344   0.000476   0.000347   0.000264   0.000221   0.000318
     H   65   0.000348   0.000361   0.000450   0.000289   0.000270   0.000321
     H   66   0.000412   0.000537   0.000773   0.000499   0.000369   0.000500
     H   67   0.000305   0.000274   0.000485   0.000418   0.000349   0.000362
     H   68   0.000976   0.000874   0.001099   0.000703   0.000812   0.000893


                  C 19       C 20       H 21       H 22       H 23       C 24
 ------------------------------------------------------------------------------
     C   19  12.786472
     C   20   2.824057  11.206297
     H   21   0.667697   3.397724   4.210174
     H   22   0.670707   3.428510   0.463410   4.216515
     H   23   0.688539   3.445189   0.465975   0.464180   4.238406
     C   24   2.617678   0.709505   0.045627   0.010406   0.015716  11.204639
     H   25   0.667028   0.046205   0.008003   0.002255   0.002813   3.441987
     H   26   0.669347   0.010951   0.002756   0.005247   0.016981   3.431964
     H   27   0.649408   0.014727   0.003229   0.016570   0.010479   3.425759
     C   28   2.829273   0.696681   0.014587   0.045491   0.011230   0.775552
     H   29   0.675971   0.044119   0.003170   0.007720   0.002062   0.012501
     H   30   0.662683   0.021202   0.024188   0.003279   0.009351   0.041997
     H   31   0.682170   0.011789   0.005600   0.001875   0.011240   0.056671
     N   32   0.071789   0.057734   0.032501   0.011191   0.007066   0.034849
     C   33   0.023307   0.069946   0.035113   0.035444   0.007247   0.020820
     O   34   0.013877   0.041359   0.018523   0.020225   0.003857   0.012537
     H   35   0.001816   0.005915   0.002392   0.002418   0.000558   0.001970
     O   36   0.021678   0.072871   0.022698   0.027641   0.006810   0.019416
     H   37   0.019545   0.050060   0.038917   0.025768   0.006022   0.014491
     C   38   0.003261   0.003545   0.001698   0.000797   0.000704   0.003166
     C   39   0.022184   0.030025   0.015292   0.007372   0.005974   0.016862
     C   40   0.018755   0.025970   0.012674   0.007419   0.004952   0.014867
     C   41   0.017657   0.025072   0.012599   0.008207   0.004408   0.014750
     C   42   0.005266   0.006099   0.002642   0.001975   0.000769   0.004500
     C   43   0.001855   0.002463   0.001157   0.000668   0.000521   0.001943
     C   44   0.024318   0.033464   0.018270   0.007477   0.006727   0.018164
     C   45   0.002828   0.003184   0.001467   0.000695   0.000927   0.002532
     N   46   0.010589   0.016228   0.008171   0.005841   0.002842   0.009505
     C   47   0.004184   0.006800   0.003369   0.001546   0.001569   0.003998
     C   48   0.002379   0.003821   0.002198   0.001006   0.000800   0.002350
     C   49   0.004150   0.010122   0.005884   0.002973   0.002462   0.003738
     H   50   0.001140   0.001537   0.000656   0.000322   0.000359   0.001090
     H   51   0.001853   0.002054   0.000821   0.000552   0.000381   0.002228
     H   52   0.001647   0.001757   0.000759   0.000402   0.000467   0.001305
     H   53   0.001737   0.002535   0.001093   0.000868   0.000358   0.001486
     H   54   0.003236   0.004297   0.001903   0.001327   0.000339   0.003844
     H   55   0.000824   0.001101   0.000474   0.000266   0.000252   0.000899
     H   56   0.001716   0.001493   0.000642   0.000423   0.000259   0.001137
     H   57   0.002300   0.003474   0.001854   0.000849   0.000657   0.001965
     H   58   0.001107   0.001233   0.000514   0.000256   0.000300   0.000979
     H   59   0.001261   0.001353   0.000629   0.000302   0.000364   0.001309
     H   60   0.000697   0.000940   0.000388   0.000214   0.000238   0.000571
     H   61   0.004079   0.009880   0.004499   0.004362   0.000899   0.003203
     H   62   0.000607   0.000866   0.000435   0.000389   0.000189   0.000481
     H   63   0.000699   0.001041   0.000481   0.000254   0.000218   0.000676
     H   64   0.000600   0.000975   0.000462   0.000264   0.000219   0.000524


                  C 19       C 20       H 21       H 22       H 23       C 24
 ------------------------------------------------------------------------------
     H   65   0.000612   0.001057   0.000508   0.000368   0.000191   0.000553
     H   66   0.001034   0.003316   0.001849   0.001079   0.000627   0.001015
     H   67   0.000953   0.001925   0.001154   0.000446   0.000479   0.000880
     H   68   0.002369   0.006034   0.003378   0.001608   0.001450   0.002276


                  H 25       H 26       H 27       C 28       H 29       H 30
 ------------------------------------------------------------------------------
     H   25   4.224776
     H   26   0.465607   4.219182
     H   27   0.465730   0.470137   4.206946
     C   28   0.012370   0.041876   0.045180  11.275987
     H   29   0.012026   0.006612   0.001466   3.435964   4.217491
     H   30   0.001936   0.003600   0.007530   3.420155   0.463821   4.231757
     H   31   0.009519   0.036297   0.003720   3.423952   0.466026   0.471464
     N   32   0.010218   0.006049   0.007552   0.185471   0.021253   0.055177
     C   33   0.003486   0.004334   0.006229   0.021760   0.004125   0.007892
     O   34   0.002208   0.002523   0.003481   0.012094   0.002500   0.004779
     H   35   0.000377   0.000302   0.000679   0.001635   0.000389   0.000700
     O   36   0.002966   0.003642   0.006150   0.020894   0.004607   0.008823
     H   37   0.002460   0.002274   0.004683   0.021396   0.005813   0.011848
     C   38   0.000823   0.000770   0.000757   0.003985   0.001335   0.002115
     C   39   0.002812   0.003073   0.003155   0.045359   0.014505   0.023373
     C   40   0.002668   0.002737   0.003117   0.037484   0.012409   0.018700
     C   41   0.002965   0.002481   0.003467   0.034713   0.011397   0.017043
     C   42   0.001089   0.000865   0.001163   0.004758   0.001326   0.002145
     C   43   0.000509   0.000387   0.000438   0.002718   0.000783   0.001216
     C   44   0.003126   0.003379   0.003091   0.051871   0.015875   0.027994
     C   45   0.000723   0.000817   0.000568   0.003777   0.001591   0.002005
     N   46   0.002097   0.001687   0.002472   0.020071   0.006465   0.009838
     C   47   0.000882   0.000971   0.000928   0.006601   0.001874   0.002806
     C   48   0.000564   0.000579   0.000706   0.003627   0.001019   0.001805
     C   49   0.000941   0.001010   0.001013   0.005615   0.001524   0.002846
     H   50   0.000191   0.000387   0.000241   0.001558   0.000395   0.000627
     H   51   0.000620   0.000470   0.000566   0.002572   0.000847   0.001141
     H   52   0.000244   0.000303   0.000266   0.002245   0.000700   0.000850
     H   53   0.000334   0.000343   0.000433   0.001866   0.000506   0.000729
     H   54   0.001113   0.000622   0.001013   0.003605   0.000928   0.001459
     H   55   0.000234   0.000270   0.000197   0.001441   0.000357   0.000500
     H   56   0.000308   0.000187   0.000287   0.001547   0.000455   0.000615
     H   57   0.000337   0.000448   0.000386   0.005303   0.001581   0.002696
     H   58   0.000247   0.000279   0.000209   0.001755   0.000734   0.000761
     H   59   0.000411   0.000347   0.000338   0.002215   0.000889   0.000968
     H   60   0.000149   0.000165   0.000191   0.001166   0.000298   0.000475
     H   61   0.000677   0.000709   0.001001   0.005277   0.001501   0.002670
     H   62   0.000110   0.000130   0.000160   0.000766   0.000249   0.000370
     H   63   0.000165   0.000137   0.000204   0.000848   0.000225   0.000327
     H   64   0.000143   0.000142   0.000135   0.000954   0.000259   0.000418
     H   65   0.000120   0.000155   0.000190   0.000972   0.000263   0.000447
     H   66   0.000217   0.000313   0.000391   0.001483   0.000369   0.000669
     H   67   0.000212   0.000232   0.000226   0.001222   0.000292   0.000660
     H   68   0.000525   0.000558   0.000534   0.003326   0.000894   0.001387


                  H 31       N 32       C 33       O 34       H 35       O 36
 ------------------------------------------------------------------------------
     H   31   4.221783
     N   32   0.008697  15.411270
     C   33   0.003929   0.089029  17.881555
     O   34   0.002042   0.054401  11.601815  13.540724
     H   35   0.000383   0.009213   3.233541   0.794437   4.068153
     O   36   0.003589   0.122290   6.394791   1.976261   0.817795   9.952790
     H   37   0.002226   0.194192   1.416100   0.371818   0.145724   2.318834
     C   38   0.000741   0.066406   0.012142   0.011087   0.001203   0.009201
     C   39   0.006023   0.209172   0.233590   0.162393   0.018207   0.194689
     C   40   0.004926   0.164897   0.262292   0.199127   0.021546   0.203305
     C   41   0.004609   0.152370   0.306710   0.242215   0.026049   0.232330
     C   42   0.000809   0.055077   0.075177   0.072947   0.006487   0.057453
     C   43   0.000597   0.016376   0.007298   0.008068   0.001079   0.007710
     C   44   0.007508   0.308173   0.212257   0.135808   0.016243   0.191220
     C   45   0.000976   0.052048   0.005025   0.007118   0.001047   0.007173
     N   46   0.003030   0.090677   0.219415   0.262094   0.020572   0.161220
     C   47   0.001579   0.030695   0.026987   0.035069   0.003382   0.020665
     C   48   0.000962   0.018782   0.019444   0.020009   0.001887   0.015655
     C   49   0.001517   0.040259   0.039324   0.035406   0.003585   0.034714
     H   50   0.000393   0.010891   0.001802   0.001774   0.000470   0.001701
     H   51   0.000308   0.040953   0.007762   0.005480   0.000479   0.006118
     H   52   0.000439   0.010567   0.003797   0.004704   0.000468   0.004146
     H   53   0.000446   0.009878   0.055989   0.033718   0.004099   0.035578
     H   54   0.000473   0.036505   0.051884   0.036164   0.004498   0.036163
     H   55   0.000417   0.004794   0.003138   0.003321   0.000358   0.002997
     H   56   0.000310   0.008276   0.005191   0.005378   0.000654   0.004182
     H   57   0.000849   0.031690   0.019026   0.011995   0.001414   0.017959
     H   58   0.000374   0.012605   0.001670   0.001647   0.000345   0.002844
     H   59   0.000329   0.036588   0.002653   0.002113   0.000293   0.003019
     H   60   0.000385   0.005555   0.002006   0.001284   0.000248   0.002670
     H   61   0.000816   0.035691   0.251894   0.160021   0.031219   0.148541
     H   62   0.000193   0.005364   0.007484   0.007530   0.001157   0.005971
     H   63   0.000226   0.003917   0.003193   0.003036   0.000482   0.002202
     H   64   0.000221   0.003905   0.004458   0.005017   0.000606   0.002962
     H   65   0.000233   0.004308   0.011670   0.009772   0.000823   0.008537
     H   66   0.000368   0.009875   0.020610   0.017456   0.001735   0.015232
     H   67   0.000333   0.006266   0.004920   0.003954   0.000387   0.004172
     H   68   0.000990   0.027612   0.021582   0.014545   0.001871   0.018655


                  H 37       C 38       C 39       C 40       C 41       C 42
 ------------------------------------------------------------------------------
     H   37   2.834900
     C   38   0.011655  11.979698
     C   39   0.225702   3.552721  16.044706
     C   40   0.217273   0.750513   5.310999  14.944156
     C   41   0.242063   0.067017   2.251715   5.954506  16.968952
     C   42   0.052861   0.671288   0.093439   0.795944   3.268056  11.947027
     C   43   0.010540   2.953292   0.630146   0.084807   0.700327   3.005868
     C   44   0.238749   0.799182   6.682666   1.961730   0.982377   0.077379
     C   45   0.011522   0.074242   0.749468   0.115678   0.084489   0.007812
     N   46   0.160694   0.033122   0.730704   2.005893   6.959168   1.051380
     C   47   0.025083   0.010442   0.174928   0.212663   0.934737   0.109155
     C   48   0.017467   0.005580   0.092264   0.120074   0.173665   0.021992
     C   49   0.037929   0.006288   0.096613   0.121612   0.186204   0.022088
     H   50   0.002402   3.257836   0.751657   0.036885   0.012486   0.045510
     H   51   0.005829   3.188101   0.748877   0.029495   0.015765   0.007551
     H   52   0.006354   0.055341   0.804027   3.422249   0.793367   0.069068
     H   53   0.025870   0.045119   0.032940   0.055648   0.737407   3.269186
     H   54   0.033491   0.007438   0.058027   0.063354   0.760161   3.192177
     H   55   0.003885   0.689483   0.032054   0.019157   0.040583   0.696942
     H   56   0.004046   0.670833   0.052203   0.009399   0.050445   0.678192
     H   57   0.023417   0.078882   0.807604   0.126667   0.078475   0.007416
     H   58   0.004100   0.004198   0.056577   0.009655   0.013477   0.001172
     H   59   0.004042   0.015204   0.030872   0.019485   0.017399   0.002789
     H   60   0.003521   0.008277   0.020513   0.014553   0.008347   0.002362
     H   61   0.114019   0.008472   0.130385   0.199990   1.025199   0.073457
     H   62   0.006094   0.002068   0.024159   0.080077   0.101467   0.008208
     H   63   0.002011   0.000888   0.010914   0.015820   0.023547   0.004129
     H   64   0.003234   0.001989   0.023756   0.032897   0.048285   0.004555
     H   65   0.006933   0.001245   0.020037   0.027261   0.041475   0.004138
     H   66   0.014983   0.001281   0.014764   0.020839   0.032994   0.003747
     H   67   0.004445   0.001120   0.010852   0.014760   0.022385   0.003307
     H   68   0.022269   0.002403   0.049870   0.055383   0.071698   0.005872


                  C 43       C 44       C 45       N 46       C 47       C 48
 ------------------------------------------------------------------------------
     C   43  11.938228
     C   44   0.071908  14.061968
     C   45   0.007845   3.812148  11.617137
     N   46   0.058006   0.527307   0.048985  15.237719
     C   47   0.017490   0.127166   0.014023   3.662499  12.630525
     C   48   0.007426   0.067579   0.007293   0.970776   2.797915  11.270975
     C   49   0.003406   0.078244   0.007925   0.953035   2.883365   0.701095
     H   50   0.676261   0.045123   0.015704   0.007973   0.002170   0.001874
     H   51   0.668368   0.058283   0.009988   0.006949   0.002750   0.001306
     H   52   0.005448   0.121953   0.007250   0.055560   0.074179   0.012982
     H   53   0.658630   0.028082   0.002507   0.068569   0.009495   0.005571
     H   54   0.660543   0.048310   0.002980   0.042141   0.015306   0.004826
     H   55   3.315026   0.018842   0.003546   0.011234   0.004073   0.003969
     H   56   3.326691   0.013357   0.002841   0.008991   0.003301   0.001121
     H   57   0.007120   3.410543   0.680394   0.045267   0.011984   0.006467
     H   58   0.001328   0.704533   3.424765   0.008192   0.002767   0.001606
     H   59   0.002719   0.703056   3.353666   0.010134   0.003051   0.001727
     H   60   0.001843   0.714736   3.372359   0.005571   0.001744   0.001171
     H   61   0.009066   0.092366   0.009610   3.309542   0.678488   0.026806
     H   62   0.001586   0.020020   0.002138   0.810234   3.106924   0.664205
     H   63   0.001002   0.008557   0.001378   0.050497   0.671295   3.439921
     H   64   0.002068   0.017067   0.002170   0.032415   0.680899   3.435049
     H   65   0.001852   0.014045   0.001642   0.016843   0.688601   3.440608
     H   66   0.001397   0.010344   0.001585   0.014316   0.688761   0.012288
     H   67   0.000681   0.009864   0.001464   0.057433   0.673149   0.014722
     H   68   0.001594   0.046331   0.002420   0.048218   0.685163   0.047416


                  C 49       H 50       H 51       H 52       H 53       H 54
 ------------------------------------------------------------------------------
     C   49  11.290177
     H   50   0.001992   4.215725
     H   51   0.002095   0.452795   4.127651
     H   52   0.011382   0.006985   0.006344   4.409016
     H   53   0.005592   0.007472   0.002200   0.008402   4.200658
     H   54   0.002936   0.002020   0.010797   0.008371   0.444143   4.159104
     H   55   0.002506   0.025942   0.044362   0.002162   0.020924   0.046421
     H   56   0.001235   0.017402   0.024066   0.001292   0.021395   0.019093
     H   57   0.007831   0.006788   0.009780   0.029260   0.002414   0.004366
     H   58   0.001800   0.001909   0.002032   0.001282   0.000589   0.000651
     H   59   0.001962   0.016967   0.016177   0.001354   0.000643   0.001424
     H   60   0.001486   0.014683   0.004589   0.001415   0.000480   0.000649
     H   61   0.035008   0.001759   0.002162   0.009577   0.037433   0.021421
     H   62   0.662826   0.000492   0.000310   0.040845   0.000880   0.000968
     H   63   0.014640   0.000390   0.000443   0.002968   0.000464   0.000528
     H   64   0.048066   0.000702   0.000437   0.004514   0.002072   0.000874
     H   65   0.012629   0.000484   0.000413   0.001441   0.002223   0.000920
     H   66   3.442953   0.000564   0.000386   0.001719   0.001618   0.001226
     H   67   3.443385   0.000535   0.000386   0.002744   0.000436   0.000593
     H   68   3.365916   0.000710   0.001081   0.004582   0.001395   0.001937


                  H 55       H 56       H 57       H 58       H 59       H 60
 ------------------------------------------------------------------------------
     H   55   4.245845
     H   56   0.455335   4.249129
     H   57   0.001929   0.001895   4.352954
     H   58   0.000625   0.000598   0.024168   4.229627
     H   59   0.001099   0.001230   0.037130   0.461264   4.169208
     H   60   0.001250   0.000849   0.014019   0.467839   0.465433   4.192974
     H   61   0.003987   0.002756   0.007936   0.001743   0.002107   0.001099
     H   62   0.000543   0.000244   0.003193   0.000490   0.000360   0.000517
     H   63   0.000450   0.000365   0.000978   0.000415   0.000321   0.000196
     H   64   0.001664   0.000526   0.001715   0.000411   0.000481   0.000448
     H   65   0.000921   0.000430   0.001272   0.000370   0.000405   0.000309
     H   66   0.000586   0.000349   0.001078   0.000406   0.000414   0.000309
     H   67   0.000294   0.000346   0.001098   0.000395   0.000406   0.000338
     H   68   0.000879   0.000518   0.004278   0.000696   0.000739   0.000666


                  H 61       H 62       H 63       H 64       H 65       H 66
 ------------------------------------------------------------------------------
     H   61   4.210004
     H   62   0.061009   4.205007
     H   63   0.004916   0.018001   4.225936
     H   64   0.014063   0.018023   0.463134   4.216034
     H   65   0.021628   0.045713   0.464688   0.462213   4.219290
     H   66   0.026151   0.045422   0.007465   0.003029   0.015960   4.219553
     H   67   0.003444   0.019625   0.017975   0.002741   0.006870   0.465151
     H   68   0.020172   0.019301   0.004072   0.008197   0.003969   0.456205


                  H 67       H 68
 ------------------------------
     H   67   4.229573
     H   68   0.458088   4.156896


          HEAT OF FORMATION =    -159.182689 KCALS/MOLE

          ZERO POINT ENERGY     339.352 KCAL/MOL

         NOTE: SYSTEM IS NOT A GROUND STATE, THEREFORE ZERO POINT
         ENERGY IS NOT MEANINGFULL. ZERO POINT ENERGY PRINTED
         DOES NOT INCLUDE THE  2 IMAGINARY FREQUENCIES


           NORMAL COORDINATE ANALYSIS (Total motion = 1 Angstrom)


   Root No.       1         2         3         4         5         6         7         8

                 1 A       2 A       3 A       4 A       5 A       6 A       7 A       8 A   

                -455.5     -21.6      27.2      30.7      41.3      42.8      51.1      54.8
  
           1    0.0366   -0.0011   -0.0006   -0.0086    0.0064   -0.0004   -0.0030   -0.0042
           2    0.0349    0.0002    0.0004    0.0030    0.0042    0.0006   -0.0060    0.0029
           3   -0.1068   -0.0040   -0.0051    0.0048    0.0017   -0.0016   -0.0025   -0.0056
           4   -0.0102   -0.0011   -0.0008   -0.0085    0.0064   -0.0005   -0.0030   -0.0044
           5    0.0245    0.0001    0.0037    0.0056   -0.0017   -0.0003   -0.0063    0.0040
           6   -0.0175   -0.0054   -0.0065    0.0023    0.0048    0.0000   -0.0022   -0.0086
           7   -0.0198   -0.0009   -0.0028   -0.0102    0.0101   -0.0002   -0.0029   -0.0052
           8   -0.0138    0.0004   -0.0012    0.0018    0.0070    0.0006   -0.0059    0.0021
           9    0.0806   -0.0049   -0.0074    0.0072    0.0028   -0.0015   -0.0071   -0.0060
          10    0.0176   -0.0008   -0.0022   -0.0095    0.0090   -0.0002   -0.0028   -0.0042
          11   -0.0009    0.0002    0.0060    0.0064   -0.0052   -0.0004   -0.0051    0.0056
          12    0.0088   -0.0063   -0.0091    0.0021    0.0079   -0.0004   -0.0055   -0.0130
          13    0.0021   -0.0017    0.0020   -0.0072    0.0021   -0.0015   -0.0032   -0.0046
          14   -0.0279   -0.0003    0.0036    0.0070   -0.0029   -0.0024   -0.0086    0.0019
          15   -0.0073   -0.0045   -0.0036    0.0000    0.0038    0.0043    0.0032   -0.0035
          16    0.0009   -0.0019    0.0032   -0.0070    0.0004   -0.0028   -0.0036   -0.0047
          17    0.0088   -0.0006    0.0075    0.0079   -0.0073   -0.0066   -0.0089    0.0014
          18   -0.0009   -0.0052   -0.0038   -0.0007    0.0091    0.0113    0.0069   -0.0037
          19    0.0019   -0.0018    0.0019   -0.0074    0.0027   -0.0009   -0.0032   -0.0051
          20    0.0098   -0.0003   -0.0031    0.0031    0.0084    0.0005   -0.0092   -0.0002
          21   -0.0144   -0.0029   -0.0002    0.0039   -0.0039   -0.0012    0.0040    0.0007
          22    0.0054   -0.0020    0.0025   -0.0072    0.0016   -0.0009   -0.0033   -0.0055
          23    0.0034   -0.0002   -0.0069    0.0008    0.0148    0.0014   -0.0113   -0.0014
          24    0.0010   -0.0018    0.0035    0.0068   -0.0101   -0.0024    0.0082    0.0049
          25    0.0020   -0.0023    0.0053   -0.0044   -0.0058    0.0012   -0.0028   -0.0023
          26   -0.0056   -0.0011   -0.0018    0.0047    0.0017   -0.0006   -0.0066   -0.0006
          27   -0.0012   -0.0024    0.0019    0.0031    0.0009    0.0008   -0.0006    0.0015
          28    0.0004   -0.0018    0.0011    0.0088   -0.0095    0.0044   -0.0019    0.0037
          29   -0.0016   -0.0020   -0.0018   -0.0018   -0.0033    0.0013    0.0001    0.0016
          30   -0.0015   -0.0020   -0.0001    0.0099   -0.0002    0.0017   -0.0012    0.0039
          31    0.0002   -0.0026    0.0121   -0.0145   -0.0102    0.0014   -0.0041   -0.0010
          32   -0.0015   -0.0006   -0.0029    0.0085    0.0058   -0.0017   -0.0096   -0.0029
          33    0.0007   -0.0018    0.0058    0.0009    0.0034   -0.0010   -0.0066   -0.0011
          34   -0.0001   -0.0018    0.0065    0.0142   -0.0174    0.0084   -0.0051    0.0182
          35   -0.0015   -0.0023   -0.0022   -0.0044   -0.0044    0.0020    0.0028    0.0015
          36   -0.0016   -0.0011    0.0027    0.0183    0.0015    0.0015   -0.0095    0.0077
          37   -0.0006   -0.0025    0.0171   -0.0098   -0.0183    0.0051   -0.0069    0.0121
          38   -0.0010   -0.0009   -0.0038    0.0061    0.0046   -0.0013   -0.0066   -0.0034
          39   -0.0002   -0.0009    0.0086    0.0080    0.0052   -0.0018   -0.0148    0.0017
          40    0.0058   -0.0027    0.0135   -0.0260   -0.0077   -0.0009   -0.0030   -0.0096
          41   -0.0008    0.0001   -0.0031    0.0137    0.0097   -0.0032   -0.0144   -0.0045
          42    0.0058   -0.0020    0.0066   -0.0063    0.0041   -0.0021   -0.0051   -0.0056
          43   -0.0005   -0.0021    0.0147    0.0055   -0.0219    0.0086   -0.0080    0.0233
          44   -0.0005   -0.0018   -0.0033   -0.0006   -0.0007    0.0006   -0.0004   -0.0012
          45   -0.0005   -0.0005    0.0072    0.0174    0.0042   -0.0001   -0.0164    0.0074
          46   -0.0003   -0.0014    0.0041    0.0255   -0.0205    0.0114   -0.0054    0.0257
          47   -0.0023   -0.0030   -0.0018   -0.0089   -0.0090    0.0028    0.0072    0.0042
          48   -0.0015   -0.0008    0.0013    0.0254    0.0008    0.0030   -0.0106    0.0113
          49    0.0004   -0.0027    0.0228   -0.0177   -0.0218    0.0053   -0.0084    0.0141
          50   -0.0017   -0.0005   -0.0048    0.0092    0.0078   -0.0025   -0.0090   -0.0056
          51    0.0007   -0.0005    0.0119    0.0062    0.0073   -0.0034   -0.0198   -0.0002
          52   -0.0003   -0.0020    0.0188    0.0101   -0.0280    0.0117   -0.0107    0.0354
          53   -0.0012   -0.0021   -0.0037   -0.0027   -0.0018    0.0010    0.0020   -0.0015
          54   -0.0002    0.0002    0.0094    0.0241    0.0054   -0.0003   -0.0230    0.0114
          55    0.0004   -0.0012   -0.0097    0.0153   -0.0070    0.0022    0.0030   -0.0057
          56   -0.0008   -0.0029   -0.0005   -0.0073   -0.0051    0.0055    0.0045    0.0035
          57   -0.0002   -0.0028   -0.0042    0.0068   -0.0009    0.0055    0.0065    0.0013
          58    0.0003   -0.0009   -0.0109    0.0154   -0.0098   -0.0033    0.0030   -0.0052
          59   -0.0001   -0.0044    0.0145   -0.0109    0.0062    0.0332   -0.0007    0.0091
          60   -0.0003   -0.0036   -0.0062    0.0082    0.0130    0.0290    0.0107   -0.0077
          61    0.0045    0.0000   -0.0136    0.0149   -0.0217   -0.0249    0.0021   -0.0010
          62   -0.0007   -0.0054    0.0229   -0.0003    0.0228    0.0547   -0.0035   -0.0018
          63   -0.0026   -0.0034   -0.0090    0.0040    0.0090    0.0252    0.0120   -0.0042
          64    0.0002   -0.0019   -0.0021    0.0121   -0.0039    0.0128    0.0002   -0.0007
          65   -0.0007   -0.0048    0.0186   -0.0136    0.0075    0.0394   -0.0021    0.0127
          66   -0.0022   -0.0046   -0.0007    0.0201    0.0328    0.0538    0.0098   -0.0227
          67    0.0004   -0.0008   -0.0175    0.0193   -0.0055   -0.0012    0.0070   -0.0139
          68   -0.0022   -0.0043    0.0138   -0.0209   -0.0030    0.0268   -0.0005    0.0203
          69   -0.0027   -0.0034   -0.0106    0.0015    0.0073    0.0244    0.0132   -0.0027
          70    0.0004   -0.0024   -0.0072    0.0160    0.0117    0.0360    0.0059   -0.0146
          71    0.0002   -0.0033   -0.0076   -0.0140   -0.0123   -0.0030    0.0142    0.0007
          72    0.0003   -0.0024   -0.0029    0.0082   -0.0028    0.0010    0.0034    0.0037
          73    0.0004   -0.0028   -0.0047    0.0155    0.0153    0.0434    0.0054   -0.0148
          74   -0.0001   -0.0021   -0.0183   -0.0120   -0.0210   -0.0228    0.0184   -0.0021
          75   -0.0007   -0.0017   -0.0014    0.0083   -0.0136   -0.0182   -0.0012    0.0114
          76    0.0007   -0.0016   -0.0159    0.0189    0.0123    0.0327    0.0105   -0.0211
          77   -0.0005   -0.0040   -0.0074   -0.0180   -0.0126   -0.0002    0.0175    0.0002
          78   -0.0007   -0.0030   -0.0054    0.0042   -0.0030    0.0034    0.0089    0.0010
          79    0.0001   -0.0036    0.0009    0.0141    0.0226    0.0585    0.0042   -0.0153
          80   -0.0002   -0.0043   -0.0026   -0.0174   -0.0083    0.0079    0.0143    0.0015
          81   -0.0003   -0.0023   -0.0009    0.0132    0.0067    0.0141    0.0000    0.0007
          82    0.0004    0.0005   -0.0230    0.0199   -0.0207   -0.0287    0.0060   -0.0083
          83    0.0002   -0.0020   -0.0066   -0.0036   -0.0101   -0.0074    0.0050    0.0017
          84   -0.0000   -0.0032   -0.0073   -0.0012   -0.0117   -0.0086    0.0123    0.0038
          85   -0.0001    0.0004   -0.0217    0.0187   -0.0211   -0.0284    0.0058   -0.0073
          86   -0.0003   -0.0006   -0.0169    0.0017   -0.0192   -0.0294    0.0068   -0.0010
          87   -0.0029   -0.0027   -0.0061   -0.0057   -0.0199   -0.0217    0.0120    0.0088
          88    0.0037    0.0015   -0.0278    0.0182   -0.0331   -0.0515    0.0076   -0.0055
          89    0.0040   -0.0019   -0.0003   -0.0024   -0.0039    0.0042    0.0012    0.0035
          90   -0.0064   -0.0037   -0.0089   -0.0011   -0.0095   -0.0046    0.0138    0.0013
          91   -0.0015    0.0009   -0.0302    0.0269   -0.0193   -0.0313    0.0070   -0.0142
          92   -0.0031   -0.0026   -0.0076   -0.0073   -0.0120   -0.0079    0.0082    0.0014
          93   -0.0038   -0.0036   -0.0091   -0.0030   -0.0128   -0.0092    0.0148    0.0027
          94    0.0090   -0.0022    0.0031   -0.0067    0.0006   -0.0009   -0.0032   -0.0056
          95   -0.0025   -0.0007   -0.0006    0.0068    0.0033   -0.0009   -0.0100   -0.0011
          96   -0.0055   -0.0031   -0.0005   -0.0015   -0.0016    0.0013    0.0054    0.0021
          97    0.0046    0.0040    0.0024    0.0028    0.0294   -0.0162    0.0256    0.0141
          98   -0.0115    0.0022    0.0071    0.0099    0.0087   -0.0106    0.0016    0.0023
          99    0.0026    0.0059   -0.0122   -0.0177   -0.0045    0.0018    0.0066    0.0067
         100    0.0027    0.0054   -0.0265   -0.0018    0.0274   -0.0064    0.0065    0.0451
         101   -0.0050    0.0068   -0.0066    0.0015    0.0087   -0.0084   -0.0057    0.0096
         102   -0.0038    0.0048   -0.0074   -0.0157   -0.0043    0.0007    0.0094    0.0029
         103   -0.0008    0.0058    0.0103    0.0061    0.0393   -0.0237    0.0385    0.0105
         104   -0.0074    0.0014    0.0111    0.0139    0.0127   -0.0130    0.0069    0.0028
         105   -0.0077    0.0086   -0.0145   -0.0230   -0.0054    0.0014    0.0051    0.0031
         106    0.0035    0.0000    0.0288    0.0047    0.0198   -0.0192    0.0339   -0.0196
         107   -0.0058   -0.0027    0.0198    0.0154    0.0038   -0.0101    0.0044   -0.0096
         108   -0.0049    0.0036   -0.0160   -0.0137   -0.0037    0.0041    0.0041    0.0156
         109    0.0235   -0.0007    0.0186   -0.0001    0.0108   -0.0120    0.0188   -0.0128
         110   -0.0362   -0.0020    0.0141    0.0116   -0.0004   -0.0075   -0.0025   -0.0065
         111    0.0009    0.0003   -0.0121   -0.0086   -0.0017    0.0053    0.0053    0.0135
         112   -0.0058    0.0007   -0.0048   -0.0027    0.0008    0.0011   -0.0064   -0.0056
         113   -0.0063    0.0027    0.0079   -0.0012   -0.0033    0.0018    0.0099    0.0080
         114    0.0006   -0.0027    0.0019    0.0022   -0.0057    0.0014    0.0071   -0.0032
         115   -0.0262    0.0011   -0.0002   -0.0019    0.0003    0.0012   -0.0035   -0.0008
         116    0.0071    0.0025    0.0057   -0.0016   -0.0031    0.0017    0.0084    0.0058
         117    0.0150   -0.0032   -0.0013    0.0020   -0.0018    0.0001    0.0030   -0.0041
         118    0.0123    0.0010    0.0003   -0.0014   -0.0003    0.0016   -0.0027    0.0001
         119   -0.0015    0.0027    0.0013   -0.0027   -0.0028    0.0015    0.0057    0.0006
         120   -0.0091   -0.0017   -0.0016   -0.0022    0.0019   -0.0023   -0.0001   -0.0072
         121   -0.0130    0.0011   -0.0037   -0.0024    0.0008    0.0012   -0.0055   -0.0039
         122    0.0122    0.0024   -0.0023   -0.0030   -0.0018    0.0011    0.0037   -0.0025
         123   -0.0054    0.0031    0.0044   -0.0072   -0.0012   -0.0030   -0.0015   -0.0072
         124   -0.0004    0.0010   -0.0079   -0.0041    0.0021    0.0002   -0.0095   -0.0090
         125    0.0028    0.0036   -0.0013   -0.0020   -0.0010    0.0008    0.0045   -0.0002
[...]
 EFFECTIVE MASS      1.3399
 FORCE CONSTANT      1.4490

 VIBRATION        167  167A           ATOM PAIR      ENERGY CONTRIBUTION    RADIAL
 FREQUENCY          2657.21         C 49 -- H 68         +48.3% ( 71.2%)     99.5%
 TRANSITION DIPOLE   0.8543         N 46 -- H 61         +25.0% ( 51.2%)     99.9%
 TRAVEL (Ang.)       0.2748         C 49 -- H 66         +18.8% ( 44.5%)     92.5%
 REDUCED MASS        0.3360         C 49 -- H 67          +3.5% ( 19.1%)     57.9%
 EFFECTIVE MASS      1.4312
 FORCE CONSTANT      1.3977

 VIBRATION        168  168A           ATOM PAIR      ENERGY CONTRIBUTION    RADIAL
 FREQUENCY          2658.98         C 45 -- H 59         +67.5% ( 84.7%)     99.6%
 TRANSITION DIPOLE   0.5802         C 45 -- H 60         +22.0% ( 48.3%)     91.3%
 TRAVEL (Ang.)       0.2201         C 45 -- H 58          +7.3% ( 27.8%)     70.3%
 REDUCED MASS        0.5235         C 44 -- H 57          +1.0% ( 10.1%)     99.0%
 EFFECTIVE MASS      1.4390
 FORCE CONSTANT      2.1806

 VIBRATION        169  169A           ATOM PAIR      ENERGY CONTRIBUTION    RADIAL
 FREQUENCY          2663.09         C 33 -- H 35         +96.6% ( 99.8%)    100.0%
 TRANSITION DIPOLE   0.3329         C 33 -- O 34          +1.6% ( 12.8%)     47.7%
 TRAVEL (Ang.)       0.1656         C 33 -- O 36          +1.5% ( 12.2%)      5.1%
 REDUCED MASS        0.9238         C 20 -- H 21          +0.1% (  3.9%)     98.9%
 EFFECTIVE MASS      1.4544
 FORCE CONSTANT      3.8602

 VIBRATION        170  170A           ATOM PAIR      ENERGY CONTRIBUTION    RADIAL
 FREQUENCY          2665.49         C 47 -- H 62         +25.3% ( 51.4%)     99.9%
 TRANSITION DIPOLE   0.6918         C 48 -- H 65         +19.0% ( 44.6%)     99.1%
 TRAVEL (Ang.)       0.3952         N 46 -- H 61         +15.1% ( 39.7%)     99.9%
 REDUCED MASS        0.1619         C 49 -- H 68         +13.7% ( 37.8%)     98.1%
 EFFECTIVE MASS      1.4013
 FORCE CONSTANT      0.6779

 VIBRATION        171  171A           ATOM PAIR      ENERGY CONTRIBUTION    RADIAL
 FREQUENCY          2668.21         C 20 -- H 21         +26.5% ( 53.2%)     99.0%
 TRANSITION DIPOLE   0.2716         C 28 -- H 31         +17.9% ( 43.8%)     98.4%
 TRAVEL (Ang.)       0.3806         C 20 -- H 22         +15.8% ( 41.0%)     95.2%
 REDUCED MASS        0.1744         C 28 -- H 30         +15.1% ( 40.1%)     96.7%
 EFFECTIVE MASS      1.4429         C 24 -- H 27         +11.1% ( 34.4%)     98.7%
 FORCE CONSTANT      0.7317

 VIBRATION        172  172A           ATOM PAIR      ENERGY CONTRIBUTION    RADIAL
 FREQUENCY          2670.84         C 43 -- H 56         +44.1% ( 68.4%)     98.1%
 TRANSITION DIPOLE   0.7248         C 43 -- H 55         +41.7% ( 66.6%)     98.1%
 TRAVEL (Ang.)       0.2563         C 42 -- H 53          +3.8% ( 20.2%)     98.9%
 REDUCED MASS        0.3845         C 38 -- H 50          +3.7% ( 19.8%)     97.4%
 EFFECTIVE MASS      1.4481
 FORCE CONSTANT      1.6158

 VIBRATION        173  173A           ATOM PAIR      ENERGY CONTRIBUTION    RADIAL
 FREQUENCY          2671.50         C 20 -- H 21         +27.4% ( 54.0%)     99.1%
 TRANSITION DIPOLE   0.7553         C 28 -- H 31         +16.9% ( 42.4%)     99.6%
 TRAVEL (Ang.)       0.3871         C 24 -- H 26         +15.9% ( 41.2%)     99.3%
 REDUCED MASS        0.1685         C 20 -- H 22         +15.4% ( 40.5%)     94.7%
 EFFECTIVE MASS      1.4494
 FORCE CONSTANT      0.7085

 VIBRATION        174  174A           ATOM PAIR      ENERGY CONTRIBUTION    RADIAL
 FREQUENCY          2674.08         C 45 -- H 58         +49.9% ( 72.8%)     98.6%
 TRANSITION DIPOLE   0.4979         C 45 -- H 60         +44.3% ( 68.6%)     97.0%
 TRAVEL (Ang.)       0.2339         C 45 -- H 59          +2.8% ( 17.2%)     37.0%
 REDUCED MASS        0.4608         C 44 -- H 57          +1.1% ( 10.9%)     99.1%
 EFFECTIVE MASS      1.4386
 FORCE CONSTANT      1.9414

 VIBRATION        175  175A           ATOM PAIR      ENERGY CONTRIBUTION    RADIAL
 FREQUENCY          2674.19         C 24 -- H 27         +30.6% ( 57.0%)     98.6%
 TRANSITION DIPOLE   0.4606         C 28 -- H 31         +24.0% ( 50.6%)     99.2%
 TRAVEL (Ang.)       0.3300         C 24 -- H 26         +22.7% ( 49.2%)     96.7%
 REDUCED MASS        0.2316         C 28 -- H 30         +13.6% ( 38.1%)     94.1%
 EFFECTIVE MASS      1.4649
 FORCE CONSTANT      0.9757

 VIBRATION        176  176A           ATOM PAIR      ENERGY CONTRIBUTION    RADIAL
 FREQUENCY          2677.63         C 49 -- H 67         +28.5% ( 55.0%)     99.0%
 TRANSITION DIPOLE   0.4436         C 48 -- H 65         +27.2% ( 53.8%)     99.3%
 TRAVEL (Ang.)       0.3348         C 49 -- H 66         +19.9% ( 46.1%)     95.7%
 REDUCED MASS        0.2247         C 48 -- H 64         +13.9% ( 38.5%)     93.7%
 EFFECTIVE MASS      1.4545
 FORCE CONSTANT      0.9493

 VIBRATION        177  177A           ATOM PAIR      ENERGY CONTRIBUTION    RADIAL
 FREQUENCY          2678.74         C 28 -- H 29         +33.0% ( 59.2%)     99.1%
 TRANSITION DIPOLE   0.3530         C 24 -- H 25         +26.4% ( 53.0%)     99.6%
 TRAVEL (Ang.)       0.3275         C 28 -- H 30         +19.4% ( 45.5%)     96.0%
 REDUCED MASS        0.2347         C 24 -- H 27          +7.1% ( 27.5%)     87.2%
 EFFECTIVE MASS      1.4636
 FORCE CONSTANT      0.9921

 VIBRATION        178  178A           ATOM PAIR      ENERGY CONTRIBUTION    RADIAL
 FREQUENCY          2679.92         C 48 -- H 63         +50.6% ( 73.4%)     98.5%
 TRANSITION DIPOLE   0.5962         C 48 -- H 64         +41.7% ( 66.6%)     97.0%
 TRAVEL (Ang.)       0.2372         C 48 -- H 65          +1.8% ( 13.7%)     21.5%
 REDUCED MASS        0.4471         C 49 -- H 66          +1.4% ( 12.3%)     99.4%
 EFFECTIVE MASS      1.4605
 FORCE CONSTANT      1.8917

 VIBRATION        179  179A           ATOM PAIR      ENERGY CONTRIBUTION    RADIAL
 FREQUENCY          2680.85         C 24 -- H 25         +29.8% ( 56.3%)     99.5%
 TRANSITION DIPOLE   0.6224         C 28 -- H 29         +23.2% ( 49.6%)     99.3%
 TRAVEL (Ang.)       0.3632         C 28 -- H 30         +11.5% ( 35.0%)     94.8%
 REDUCED MASS        0.1907         C 24 -- H 27         +10.4% ( 33.2%)     90.2%
 EFFECTIVE MASS      1.4618
 FORCE CONSTANT      0.8075

 VIBRATION        180  180A           ATOM PAIR      ENERGY CONTRIBUTION    RADIAL
 FREQUENCY          2683.43         C 20 -- H 23         +47.8% ( 71.2%)     99.3%
 TRANSITION DIPOLE   0.7277         C 20 -- H 22         +24.9% ( 51.5%)     94.2%
 TRAVEL (Ang.)       0.2815         C 24 -- H 25          +6.7% ( 26.6%)     98.4%
 REDUCED MASS        0.3172         C 20 -- H 21          +6.5% ( 26.2%)     70.0%
 EFFECTIVE MASS      1.4669
 FORCE CONSTANT      1.3457

 VIBRATION        181  181A           ATOM PAIR      ENERGY CONTRIBUTION    RADIAL
 FREQUENCY          2691.41         C 47 -- H 62         +27.1% ( 53.0%)     99.9%
 TRANSITION DIPOLE   1.2934         C 49 -- H 66         +19.1% ( 44.5%)     98.6%
 TRAVEL (Ang.)       0.3688         C 49 -- H 67         +18.1% ( 43.3%)     96.9%
 REDUCED MASS        0.1842         C 48 -- H 65         +15.6% ( 40.2%)     99.5%
 EFFECTIVE MASS      1.4457
 FORCE CONSTANT      0.7862

 VIBRATION        182  182A           ATOM PAIR      ENERGY CONTRIBUTION    RADIAL
 FREQUENCY          2722.33         C 38 -- H 50         +53.6% ( 72.7%)     98.4%
 TRANSITION DIPOLE   0.6755         C 38 -- H 51         +23.4% ( 48.0%)     92.9%
 TRAVEL (Ang.)       0.2565         C 11 -- H 14         +20.1% ( 44.5%)    100.0%
 REDUCED MASS        0.3765         C 38 -- C 39          +0.4% (  6.3%)     13.3%
 EFFECTIVE MASS      1.2796
 FORCE CONSTANT      1.6441

 VIBRATION        183  183A           ATOM PAIR      ENERGY CONTRIBUTION    RADIAL
 FREQUENCY          2729.07         C 42 -- H 53         +48.8% ( 68.8%)     97.5%
 TRANSITION DIPOLE   0.7468         C 42 -- H 54         +37.4% ( 60.2%)     95.7%
 TRAVEL (Ang.)       0.2555         C 11 -- H 14          +6.6% ( 25.4%)    100.0%
 REDUCED MASS        0.3784         C 38 -- H 50          +2.6% ( 15.7%)     98.0%
 EFFECTIVE MASS      1.2541
 FORCE CONSTANT      1.6605

 VIBRATION        184  184A           ATOM PAIR      ENERGY CONTRIBUTION    RADIAL
 FREQUENCY          2739.49         C 11 -- H 14         +50.0% ( 70.9%)    100.0%
 TRANSITION DIPOLE   0.9651         C 12 -- H 16         +21.4% ( 46.4%)    100.0%
 TRAVEL (Ang.)       0.2896         C 38 -- H 50          +6.4% ( 25.3%)     96.8%
 REDUCED MASS        0.2936         C 38 -- H 51          +6.3% ( 25.3%)     96.9%
 EFFECTIVE MASS      1.3479
 FORCE CONSTANT      1.2981

 VIBRATION        185  185A           ATOM PAIR      ENERGY CONTRIBUTION    RADIAL
 FREQUENCY          2740.00         C 44 -- H 57         +65.0% ( 81.8%)     99.9%
 TRANSITION DIPOLE   0.5156         C  1 -- H  3         +26.3% ( 52.0%)    100.0%
 TRAVEL (Ang.)       0.2251         C 45 -- H 58          +2.6% ( 16.2%)     99.2%
 REDUCED MASS        0.4857         C 40 -- H 52          +1.0% ( 10.0%)    100.0%
 EFFECTIVE MASS      1.3764
 FORCE CONSTANT      2.1484

 VIBRATION        186  186A           ATOM PAIR      ENERGY CONTRIBUTION    RADIAL
 FREQUENCY          2743.78         C 12 -- H 16         +52.0% ( 72.2%)    100.0%
 TRANSITION DIPOLE   0.6144         C 43 -- H 56         +14.7% ( 38.4%)     97.2%
 TRAVEL (Ang.)       0.2820         C 11 -- H 14         +12.5% ( 35.4%)    100.0%
 REDUCED MASS        0.3089         C 43 -- H 55         +12.3% ( 35.1%)     95.9%
 EFFECTIVE MASS      1.3260
 FORCE CONSTANT      1.3703

 VIBRATION        187  187A           ATOM PAIR      ENERGY CONTRIBUTION    RADIAL
 FREQUENCY          2744.28         C 43 -- H 55         +34.9% ( 58.6%)     96.5%
 TRANSITION DIPOLE   0.3113         C 43 -- H 56         +33.2% ( 57.1%)     96.2%
 TRAVEL (Ang.)       0.3023         C 12 -- H 16         +18.3% ( 42.4%)    100.0%
 REDUCED MASS        0.2689         C 11 -- H 14          +5.9% ( 24.0%)    100.0%
 EFFECTIVE MASS      1.2865
 FORCE CONSTANT      1.1933

 VIBRATION        188  188A           ATOM PAIR      ENERGY CONTRIBUTION    RADIAL
 FREQUENCY          2750.07         C  1 -- H  3         +68.0% ( 83.7%)    100.0%
 TRANSITION DIPOLE   1.0888         C 44 -- H 57         +23.5% ( 49.3%)     99.9%
 TRAVEL (Ang.)       0.2178         C 40 -- H 52          +3.2% ( 18.2%)     99.9%
 REDUCED MASS        0.5168         C 45 -- H 58          +1.1% ( 10.8%)     99.5%
 EFFECTIVE MASS      1.4135
 FORCE CONSTANT      2.3029

 VIBRATION        189  189A           ATOM PAIR      ENERGY CONTRIBUTION    RADIAL
 FREQUENCY          2761.52         C 15 -- H 18         +47.2% ( 69.4%)    100.0%
 TRANSITION DIPOLE   0.8199         C 13 -- H 17         +44.8% ( 67.6%)    100.0%
 TRAVEL (Ang.)       0.2435         C 12 -- H 16          +3.8% ( 19.7%)     99.5%
 REDUCED MASS        0.4119         C 11 -- H 14          +1.5% ( 12.2%)     98.6%
 EFFECTIVE MASS      1.3649
 FORCE CONSTANT      1.8509

 VIBRATION        190  190A           ATOM PAIR      ENERGY CONTRIBUTION    RADIAL
 FREQUENCY          2763.76         C 40 -- H 52         +91.8% ( 96.6%)    100.0%
 TRANSITION DIPOLE   0.6546         C 44 -- H 57          +2.8% ( 16.9%)     99.7%
 TRAVEL (Ang.)       0.1729         C  2 -- H  4          +1.0% ( 10.0%)     99.9%
 REDUCED MASS        0.8162         C  1 -- H  3          +0.9% (  9.7%)     99.5%
 EFFECTIVE MASS      1.3633
 FORCE CONSTANT      3.6732

 VIBRATION        191  191A           ATOM PAIR      ENERGY CONTRIBUTION    RADIAL
 FREQUENCY          2772.38         C 13 -- H 17         +48.5% ( 70.3%)    100.0%
 TRANSITION DIPOLE   0.9848         C 15 -- H 18         +43.5% ( 66.5%)    100.0%
 TRAVEL (Ang.)       0.2418         C 12 -- H 16          +2.9% ( 17.3%)     99.8%
 REDUCED MASS        0.4160         C 11 -- H 14          +2.1% ( 14.5%)     99.7%
 EFFECTIVE MASS      1.4326
 FORCE CONSTANT      1.8837

 VIBRATION        192  192A           ATOM PAIR      ENERGY CONTRIBUTION    RADIAL
 FREQUENCY          2777.15         C 45 -- H 58         +38.1% ( 59.4%)     96.5%
 TRANSITION DIPOLE   0.4149         C 45 -- H 60         +31.5% ( 54.0%)     95.2%
 TRAVEL (Ang.)       0.2783         C 45 -- H 59         +26.9% ( 49.9%)     94.4%
 REDUCED MASS        0.3134         C 44 -- H 57          +2.6% ( 15.6%)     96.2%
 EFFECTIVE MASS      1.1542
 FORCE CONSTANT      1.4242

 VIBRATION        193  193A           ATOM PAIR      ENERGY CONTRIBUTION    RADIAL
 FREQUENCY          2779.13         C 24 -- H 26         +31.7% ( 54.1%)     96.1%
 TRANSITION DIPOLE   0.4723         C 24 -- H 25         +31.2% ( 53.6%)     95.8%
 TRAVEL (Ang.)       0.2938         C 24 -- H 27         +29.4% ( 52.0%)     95.6%
 REDUCED MASS        0.2811         C 28 -- H 30          +1.4% ( 11.4%)     96.9%
 EFFECTIVE MASS      1.1298
 FORCE CONSTANT      1.2793

 VIBRATION        194  194A           ATOM PAIR      ENERGY CONTRIBUTION    RADIAL
 FREQUENCY          2779.58         C 49 -- H 67         +31.4% ( 53.8%)     96.4%
 TRANSITION DIPOLE   0.3792         C 49 -- H 66         +29.4% ( 52.1%)     96.1%
 TRAVEL (Ang.)       0.3247         C 49 -- H 68         +20.0% ( 43.0%)     93.4%
 REDUCED MASS        0.2300         C 48 -- H 64          +5.8% ( 23.0%)     95.8%
 EFFECTIVE MASS      1.1353
 FORCE CONSTANT      1.0471

 VIBRATION        195  195A           ATOM PAIR      ENERGY CONTRIBUTION    RADIAL
 FREQUENCY          2781.61         C 28 -- H 31         +26.6% ( 49.5%)     96.1%
 TRANSITION DIPOLE   0.3706         C 28 -- H 30         +26.3% ( 49.2%)     96.4%
 TRAVEL (Ang.)       0.3405         C 28 -- H 29         +23.9% ( 46.9%)     95.1%
 REDUCED MASS        0.2091         C 20 -- H 23          +7.5% ( 26.3%)     96.3%
 EFFECTIVE MASS      1.1317
 FORCE CONSTANT      0.9534

 VIBRATION        196  196A           ATOM PAIR      ENERGY CONTRIBUTION    RADIAL
 FREQUENCY          2783.52         C 48 -- H 63         +28.4% ( 51.1%)     95.7%
 TRANSITION DIPOLE   0.5236         C 48 -- H 65         +27.7% ( 50.5%)     95.6%
 TRAVEL (Ang.)       0.3239         C 48 -- H 64         +25.9% ( 48.9%)     95.3%
 REDUCED MASS        0.2309         C 49 -- H 67          +6.6% ( 24.6%)     96.0%
 EFFECTIVE MASS      1.1387
 FORCE CONSTANT      1.0542

 VIBRATION        197  197A           ATOM PAIR      ENERGY CONTRIBUTION    RADIAL
 FREQUENCY          2784.03         C 20 -- H 23         +27.6% ( 50.4%)     96.0%
 TRANSITION DIPOLE   0.2833         C 20 -- H 21         +24.7% ( 47.7%)     95.8%
 TRAVEL (Ang.)       0.3440         C 20 -- H 22         +24.0% ( 47.0%)     95.3%
 REDUCED MASS        0.2046         C 28 -- H 30          +6.7% ( 24.9%)     96.1%
 EFFECTIVE MASS      1.1355
 FORCE CONSTANT      0.9345

 VIBRATION        198  198A           ATOM PAIR      ENERGY CONTRIBUTION    RADIAL
 FREQUENCY          2800.41         C  2 -- H  4         +96.1% ( 99.2%)    100.0%
 TRANSITION DIPOLE   1.0885         C  1 -- C  2          +1.3% ( 11.5%)     43.5%
 TRAVEL (Ang.)       0.1631         C  2 -- C  5          +1.3% ( 11.4%)     23.2%
 REDUCED MASS        0.9047         C 40 -- H 52          +0.7% (  8.8%)     99.5%
 EFFECTIVE MASS      1.4289
 FORCE CONSTANT      4.1803

           FORCE CONSTANT IN CARTESIAN COORDINATES (Millidynes/A)

    ATOM   CHEMICAL       X               Y               Z
   NUMBER   SYMBOL  FORCE CONSTANT  FORCE CONSTANT  FORCE CONSTANT

      1       C       10.886401        6.931029        1.952500
      2       C       11.375670        7.780991        3.089486
      3       H        2.025867        2.907611        0.575345
      4       H        2.145850        2.645633        0.700600
      5       C       14.459529        8.027671        3.382646
      6       O       10.683021        3.453380        0.754331
      7       C       15.149948        7.023958        3.612684
      8       O       12.239726        2.361919        1.028913
      9       C        4.704558       10.646815        9.442635
     10       C        4.308626       10.057542        9.346158
     11       C        4.214561       11.420608        7.893624
     12       C        4.254056       11.067730        7.992516
     13       C        4.514152       10.571986        8.806830
     14       H        1.267796        1.013481        3.245860
     15       C        4.685344       10.011663        9.066364
     16       H        1.249894        1.121292        3.250882
     17       H        1.105890        2.888656        1.593950
     18       H        0.554848        3.798525        1.242252
     19       C        7.262360        7.734750        7.132046
     20       C        6.514085        6.459387        6.438803
     21       H        0.979226        1.051572        3.413998
     22       H        1.572240        3.289642        0.585744
     23       H        1.370246        1.879443        2.213059
     24       C        6.475741        6.614248        6.312715
     25       H        3.825538        0.801388        0.832776
     26       H        0.707739        2.618158        2.137744
     27       H        1.651201        2.657984        1.136302
     28       C        6.486249        6.475453        6.569079
     29       H        3.999325        0.781470        0.681557
     30       H        1.130795        1.609479        2.783682
     31       H        0.636258        2.075678        2.761696
     32       N        8.434489       10.240615        3.884892
     33       C        3.674947        8.078795       14.910945
     34       O        0.567342        1.517512       12.960752
     35       H        0.731991        3.021430        1.395916
     36       O        2.056204        6.225656        5.463065
     37       H        0.837147        2.285888        0.967204
     38       C        6.952320        7.501397        6.221541
     39       C       11.165151       10.798639        3.246937
     40       C       10.999172        9.503264        2.278134
     41       C       12.819388       10.434688        2.907833
     42       C        7.214684        7.126878        6.293973
     43       C        7.080022        6.934876        6.652287
     44       C        9.686888        9.449572        1.722142
     45       C        7.515463        6.408335        6.112622
     46       N       12.324833        8.185116        1.907888
     47       C        7.354405        7.465859        7.057106
     48       C        6.517906        6.481577        6.518433
     49       C        6.563963        6.479723        6.504652
     50       H        2.918044        0.852777        1.796219
     51       H        1.133769        1.015511        3.293545
     52       H        1.436543        3.737661        0.440984
     53       H        2.084735        2.572187        0.916966
     54       H        0.760666        0.796594        3.896219
     55       H        0.888424        0.691228        4.059220
     56       H        1.363112        3.531246        0.725569
     57       H        1.340042        3.655796        0.702257
     58       H        1.354379        3.229027        0.863346
     59       H        1.168929        2.208075        2.043388
     60       H        1.412486        0.723023        3.244542
     61       H        2.177079        2.813175        0.625778
     62       H        2.117888        2.829544        0.845761
     63       H        1.632224        2.932908        0.860655
     64       H        1.872688        0.659490        2.897485
     65       H        2.071202        2.633890        0.734412
     66       H        2.221630        2.467743        0.744231
     67       H        1.566183        3.135365        0.717589
     68       H        1.538328        0.602727        3.248960

 **********************
 *                    *
 * JOB ENDED NORMALLY *
 *                    *
 **********************



 TOTAL JOB TIME:            30.97 SECONDS

 == MOPAC DONE ==
