 *******************************************************************************
 ** Site#: 36969        For non-commercial use only    Version 21.051W 64BITS **
 *******************************************************************************
 ** Cite this program as: MOPAC2016, Version: 21.051W, James J. P. Stewart,   **
 ** Stewart Computational Chemistry, web: HTTP://OpenMOPAC.net. Days left: 282**
 *******************************************************************************
 **                                                                           **
 **                                MOPAC2016                                  **
 **                                                                           **
 *******************************************************************************

                              PM7 CALCULATION RESULTS

 *******************************************************************************
 *  CALCULATION DONE:                                Fri May 14 09:26:48 2021  *
 *  PM7        - The PM7 Hamiltonian to be used
 *  FORCE      - FORCE CALCULATION SPECIFIED
 *  T=         - A TIME OF 172800.0 SECONDS REQUESTED
 *  DUMP=N     - RESTART FILE WRITTEN EVERY 7200.0 SECONDS REQUESTED
 *******************************************************************************
PM7 FORCE
 TS_2_FREQ

   ATOM   CHEMICAL          X               Y               Z
  NUMBER   SYMBOL      (ANGSTROMS)     (ANGSTROMS)     (ANGSTROMS)
 
     1       C          0.40528519  *  -0.78336363  *  -0.29405574  *
     2       C          1.65383330  *  -0.74228212  *  -0.87606999  *
     3       H         -0.54714690  *  -0.76193482  *  -0.80074232  *
     4       H          1.90671802  *  -0.41399430  *  -1.86032583  *
     5       C          2.65656301  *  -1.16791113  *   0.08243602  *
     6       O          3.88045435  *  -1.11123090  *   0.06376558  *
     7       C          0.55547161  *  -1.51486973  *   1.03081634  *
     8       O         -0.27251172  *  -1.89808614  *   1.80644929  *
     9       C          2.56280664  *  -2.14716697  *   2.41434408  *
    10       C          3.41716613  *  -3.25643650  *   2.51532748  *
    11       C          2.25877418  *  -1.35993867  *   3.54161771  *
    12       C          4.07753637  *  -3.42949510  *   3.74337501  *
    13       C          2.87986917  *  -1.60199531  *   4.75655327  *
    14       H          1.52112906  *  -0.56147143  *   3.45623621  *
    15       C          3.82376355  *  -2.62392067  *   4.84533071  *
    16       H          4.81345304  *  -4.22880237  *   3.84410713  *
    17       H          2.63779723  *  -0.99787665  *   5.62787839  *
    18       H          4.35070356  *  -2.79984576  *   5.78033431  *
    19       C          3.69574037  *  -4.28773264  *   1.43275086  *
    20       C          5.05742069  *  -3.95820971  *   0.79954172  *
    21       H          5.05386423  *  -2.95381752  *   0.35420931  *
    22       H          5.86417715  *  -3.98215098  *   1.53752426  *
    23       H          5.30589197  *  -4.66570666  *   0.00295787  *
    24       C          3.75363983  *  -5.69685117  *   2.07047057  *
    25       H          2.84730147  *  -5.89910335  *   2.65135936  *
    26       H          3.83523836  *  -6.47159319  *   1.30069248  *
    27       H          4.61536338  *  -5.82175512  *   2.73159233  *
    28       C          2.61950383  *  -4.35920572  *   0.33812948  *
    29       H          1.61155126  *  -4.31309726  *   0.76529225  *
    30       H          2.72113892  *  -3.55322187  *  -0.39505191  *
    31       H          2.69255068  *  -5.29347331  *  -0.22964559  *
    32       N          1.95962414  *  -1.72709151  *   1.19790894  *
    33       C          6.07567505  *   0.35161448  *  -2.10997109  *
    34       O          6.27872827  *   1.17652405  *  -1.24201764  *
    35       H          6.60450113  *   0.30293176  *  -3.06381793  *
    36       O          5.17192787  *  -0.59785459  *  -2.03344302  *
    37       H          4.62829727  *  -0.71547640  *  -1.11992962  *
    38       C          1.00599912  *   2.70272613  *  -0.84329559  *
    39       C          0.99701003  *   1.76467240  *   0.32819995  *
    40       C          2.21146188  *   1.53851838  *   1.00691824  *
    41       C          3.44511283  *   1.91129165  *   0.48254631  *
    42       C          3.51901835  *   2.79784613  *  -0.73715992  *
    43       C          2.30725579  *   2.58110234  *  -1.64432213  *
    44       C         -0.13796074  *   1.05140776  *   0.67568393  *
    45       C         -1.48606022  *   1.34501249  *   0.09581351  *
    46       N          4.63295763  *   1.54786067  *   1.00346255  *
    47       C          4.77243999  *   0.75226286  *   2.24293703  *
    48       C          6.06903375  *  -0.05971253  *   2.17130932  *
    49       C          4.77402544  *   1.70366153  *   3.44703759  *
    50       H          0.14135230  *   2.53070128  *  -1.51448923  *
    51       H          0.88201448  *   3.73925055  *  -0.46239797  *
    52       H          2.16995693  *   0.99838321  *   1.94800037  *
    53       H          4.45727347  *   2.63867364  *  -1.31178653  *
    54       H          3.55916248  *   3.85562921  *  -0.39475181  *
    55       H          2.36350243  *   1.57847766  *  -2.11598140  *
    56       H          2.31649277  *   3.30863294  *  -2.47628929  *
    57       H         -0.19182247  *   0.60959986  *   1.67316073  *
    58       H         -1.86488693  *   2.31149160  *   0.45961807  *
    59       H         -1.48564483  *   1.38888941  *  -0.99990596  *
    60       H         -2.22523935  *   0.58666724  *   0.39173531  *
    61       H          5.47814235  *   1.62657008  *   0.42324917  *
    62       H          3.90726293  *   0.03647725  *   2.32661714  *
    63       H          6.21103675  *  -0.64398469  *   3.08814857  *
    64       H          6.03572774  *  -0.77600362  *   1.33595978  *
    65       H          6.95245247  *   0.57251198  *   2.03642344  *
    66       H          5.62200265  *   2.39577810  *   3.41362359  *
    67       H          4.83698787  *   1.14097650  *   4.38507631  *
    68       H          3.85826859  *   2.30651783  *   3.47918087  *
 


          CARTESIAN COORDINATES 

    NO.       ATOM           X           Y           Z

     1         C          0.4053     -0.7834     -0.2941
     2         C          1.6538     -0.7423     -0.8761
     3         H         -0.5471     -0.7619     -0.8007
     4         H          1.9067     -0.4140     -1.8603
     5         C          2.6566     -1.1679      0.0824
     6         O          3.8805     -1.1112      0.0638
     7         C          0.5555     -1.5149      1.0308
     8         O         -0.2725     -1.8981      1.8064
     9         C          2.5628     -2.1472      2.4143
    10         C          3.4172     -3.2564      2.5153
    11         C          2.2588     -1.3599      3.5416
    12         C          4.0775     -3.4295      3.7434
    13         C          2.8799     -1.6020      4.7566
    14         H          1.5211     -0.5615      3.4562
    15         C          3.8238     -2.6239      4.8453
    16         H          4.8135     -4.2288      3.8441
    17         H          2.6378     -0.9979      5.6279
    18         H          4.3507     -2.7998      5.7803
    19         C          3.6957     -4.2877      1.4328
    20         C          5.0574     -3.9582      0.7995
    21         H          5.0539     -2.9538      0.3542
    22         H          5.8642     -3.9822      1.5375
    23         H          5.3059     -4.6657      0.0030
    24         C          3.7536     -5.6969      2.0705
    25         H          2.8473     -5.8991      2.6514
    26         H          3.8352     -6.4716      1.3007
    27         H          4.6154     -5.8218      2.7316
    28         C          2.6195     -4.3592      0.3381
    29         H          1.6116     -4.3131      0.7653
    30         H          2.7211     -3.5532     -0.3951
    31         H          2.6926     -5.2935     -0.2296
    32         N          1.9596     -1.7271      1.1979
    33         C          6.0757      0.3516     -2.1100
    34         O          6.2787      1.1765     -1.2420
    35         H          6.6045      0.3029     -3.0638
    36         O          5.1719     -0.5979     -2.0334
    37         H          4.6283     -0.7155     -1.1199
    38         C          1.0060      2.7027     -0.8433
    39         C          0.9970      1.7647      0.3282
    40         C          2.2115      1.5385      1.0069
    41         C          3.4451      1.9113      0.4825
    42         C          3.5190      2.7978     -0.7372
    43         C          2.3073      2.5811     -1.6443
    44         C         -0.1380      1.0514      0.6757
    45         C         -1.4861      1.3450      0.0958
    46         N          4.6330      1.5479      1.0035
    47         C          4.7724      0.7523      2.2429
    48         C          6.0690     -0.0597      2.1713
    49         C          4.7740      1.7037      3.4470
    50         H          0.1414      2.5307     -1.5145
    51         H          0.8820      3.7393     -0.4624
    52         H          2.1700      0.9984      1.9480
    53         H          4.4573      2.6387     -1.3118
    54         H          3.5592      3.8556     -0.3948
    55         H          2.3635      1.5785     -2.1160
    56         H          2.3165      3.3086     -2.4763
    57         H         -0.1918      0.6096      1.6732
    58         H         -1.8649      2.3115      0.4596
    59         H         -1.4856      1.3889     -0.9999
    60         H         -2.2252      0.5867      0.3917
    61         H          5.4781      1.6266      0.4232
    62         H          3.9073      0.0365      2.3266
    63         H          6.2110     -0.6440      3.0881
    64         H          6.0357     -0.7760      1.3360
    65         H          6.9525      0.5725      2.0364
    66         H          5.6220      2.3958      3.4136
    67         H          4.8370      1.1410      4.3851
    68         H          3.8583      2.3065      3.4792

 General Reference for PM7:
 "Optimization of Parameters for Semiempirical Methods VI: More Modifications to the 
 NDDO Approximations and Re-optimization of Parameters", J. J. P. Stewart, J. Mol. Mod., 1:32, 19 (2013)
 https://link.springer.com/article/10.1007/s00894-012-1667-x

           Empirical Formula: C26 H36 N2 O4  =    68 atoms



      MOLECULAR POINT GROUP   :   C1  


      RHF CALCULATION, NO. OF DOUBLY OCCUPIED LEVELS = 87



          HEAT OF FORMATION =    -155.510116 KCALS/MOLE


          CARTESIAN COORDINATE DERIVATIVES

   NUMBER  ATOM         X            Y            Z

     1       C     -4.235056    -2.817784     9.487908
     2       C      0.058357    -0.057302     0.024975
     3       H     -0.063249    -0.040463    -0.059509
     4       H     -0.127061     0.046882    -0.072553
     5       C     -0.011994    -0.134806    -0.024446
     6       O     10.547489     6.829675     2.799199
     7       C      0.014516     0.283423     0.227712
     8       O      0.251856    -0.093752    -0.001336
     9       C      0.130437     0.017922     0.152882
    10       C      0.039247    -0.009511     0.050166
    11       C     -0.010489    -0.016561     0.134014
    12       C      0.072617    -0.091459    -0.044645
    13       C      0.005915    -0.084907     0.087367
    14       H     -0.066612     0.051312    -0.025697
    15       C     -0.042021     0.014581     0.045832
    16       H      0.008675     0.048111    -0.174302
    17       H     -0.094923    -0.031889    -0.039133
    18       H     -0.029537    -0.019909    -0.071997
    19       C     -0.030963     0.013810    -0.039610
    20       C      0.008809     0.050358     0.069358
    21       H      0.041171     0.033293     0.046304
    22       H     -0.022923    -0.042254     0.058878
    23       H      0.002088     0.047884     0.067467
    24       C      0.000542     0.020215    -0.023975
    25       H     -0.007838    -0.027560    -0.039724
    26       H      0.001576     0.009837     0.017144
    27       H     -0.018277    -0.067401     0.034611
    28       C     -0.025781     0.022435     0.035240
    29       H     -0.034427     0.014242    -0.005474
    30       H     -0.033658     0.010389     0.013585
    31       H     -0.001922     0.002496     0.034799
    32       N      0.128092     0.126456    -0.005908
    33       C     -0.095067    -0.072374     0.016103
    34       O     -0.629670    -0.458494     0.144273
    35       H      0.136478     0.106531     0.018061
    36       O     -0.041417    -0.111413     0.084901
    37       H    -10.350414    -6.810500    -2.751724
    38       C     -0.026296     0.003106    -0.003040
    39       C     -0.014219    -0.008875    -0.029234
    40       C      0.077434    -0.101342    -0.010612
    41       C      0.034478     0.002976     0.003402
    42       C     -0.020138     0.020749    -0.050397
    43       C     -0.027175    -0.010812    -0.045206
    44       C      4.203750     2.826864    -9.530896
    45       C     -0.032540    -0.022194     0.019978
    46       N      0.065933    -0.083170    -0.029488
    47       C     -0.014075     0.005344    -0.091743
    48       C     -0.073872    -0.012709    -0.090004
    49       C     -0.060111    -0.009847    -0.042529
    50       H     -0.007135     0.035117     0.017701
    51       H      0.043576    -0.009314     0.012555
    52       H     -0.065853     0.063260     0.011647
    53       H     -0.058119    -0.014589    -0.035147
    54       H      0.006431     0.025065    -0.006977
    55       H     -0.033563    -0.003845    -0.045081
    56       H     -0.003645     0.033610    -0.117661
    57       H      0.018062    -0.024709     0.027693
    58       H     -0.025125    -0.009022     0.018062
    59       H     -0.044259    -0.006968     0.012034
    60       H     -0.053156     0.045617    -0.014751
    61       H      0.810537     0.630121    -0.122965
    62       H     -0.017996    -0.193481    -0.067815
    63       H     -0.011096    -0.055725    -0.033946
    64       H     -0.012687    -0.011493    -0.000391
    65       H     -0.114699     0.053958     0.000655
    66       H     -0.011800     0.092140    -0.095360
    67       H     -0.034116    -0.059979     0.027785
    68       H      0.027284     0.039034     0.041345
 


          GRADIENT NORM =  23.69969



 ** GRADIENT IS TOO LARGE TO ALLOW THE FORCE MATRIX TO BE CALCULATED, (LIMIT = 16.5) **



 THE GEOMETRY IS NOT AT A STATIONARY POINT ON THE POTENTIAL ENERGY SURFACE

 EITHER ADD 'LET' OR OPTIMIZE THE GEOMETRY SO THAT THE GEOMETRY IS AT A STATIONARY POINT.
 (FOR A TRANSITION STATE, USE 'TS', FOR A GROUND STATE DO A NORMAL GEOMETRY OPTIMIZATION)

          Gradient in FORCE is too large, geometry is not at a stationary point on the P.E.S.

 ***************************************************************************************
 *                                                                                     *
 *     Error and normal termination messages reported in this calculation              *
 *                                                                                     *
 * Gradient in FORCE is too large, geometry is not at a stationary point on the P.E.S. *
 * JOB ENDED NORMALLY                                                                  *
 *                                                                                     *
 ***************************************************************************************



 TOTAL JOB TIME:             0.27 SECONDS

 == MOPAC DONE ==
