 *******************************************************************************
 ** Site#: 36969        For non-commercial use only    Version 21.051W 64BITS **
 *******************************************************************************
 ** Cite this program as: MOPAC2016, Version: 21.051W, James J. P. Stewart,   **
 ** Stewart Computational Chemistry, web: HTTP://OpenMOPAC.net. Days left: 282**
 *******************************************************************************
 **                                                                           **
 **                                MOPAC2016                                  **
 **                                                                           **
 *******************************************************************************

                              PM7 CALCULATION RESULTS

 *******************************************************************************
 *  CALCULATION DONE:                                Fri May 14 09:26:48 2021  *
 *  PM7        - The PM7 Hamiltonian to be used
 *  FORCE      - FORCE CALCULATION SPECIFIED
 *  T=         - A TIME OF 172800.0 SECONDS REQUESTED
 *  DUMP=N     - RESTART FILE WRITTEN EVERY 7200.0 SECONDS REQUESTED
 *******************************************************************************
PM7 FORCE
 TS_3_FREQ

   ATOM   CHEMICAL          X               Y               Z
  NUMBER   SYMBOL      (ANGSTROMS)     (ANGSTROMS)     (ANGSTROMS)
 
     1       C          0.31401786  *  -1.18115799  *  -0.03294243  *
     2       C          1.41091072  *  -0.83806022  *  -0.85046238  *
     3       H         -0.67000184  *  -1.27553987  *  -0.39761013  *
     4       H          1.31594799  *  -0.89836020  *  -1.90216276  *
     5       C          2.68495452  *  -0.97197802  *   0.01388104  *
     6       O          3.81746365  *  -1.00669338  *  -0.33867647  *
     7       C          0.76462697  *  -1.20174291  *   1.39807614  *
     8       O          0.09975993  *  -1.19027834  *   2.38837231  *
     9       C          3.12279378  *  -1.61955527  *   2.25431386  *
    10       C          3.95161493  *  -2.72508557  *   2.06696957  *
    11       C          3.19917753  *  -0.66357665  *   3.26253374  *
    12       C          5.06513454  *  -2.72957640  *   2.91222901  *
    13       C          4.25610491  *  -0.81451270  *   4.15884390  *
    14       H          2.50603216  *   0.18025873  *   3.36988810  *
    15       C          5.17835090  *  -1.82882874  *   3.95594880  *
    16       H          5.82276037  *  -3.47486316  *   2.74186069  *
    17       H          4.32773269  *  -0.14916715  *   5.00099947  *
    18       H          5.99063416  *  -1.96787454  *   4.66440230  *
    19       C          3.81858059  *  -3.92100765  *   1.14115794  *
    20       C          4.84402073  *  -3.79233545  *   0.00204063  *
    21       H          4.62360502  *  -2.93136686  *  -0.64693554  *
    22       H          5.86748249  *  -3.60540458  *   0.37141658  *
    23       H          4.87524837  *  -4.68613402  *  -0.62945102  *
    24       C          4.09314527  *  -5.20771881  *   1.96229980  *
    25       H          3.49431530  *  -5.22517535  *   2.88056883  *
    26       H          3.84910420  *  -6.10403615  *   1.38652414  *
    27       H          5.14439166  *  -5.32211202  *   2.25275275  *
    28       C          2.38832890  *  -4.02954814  *   0.59046358  *
    29       H          1.66478904  *  -3.86765396  *   1.40257176  *
    30       H          2.21147890  *  -3.28736002  *  -0.19124187  *
    31       H          2.19959222  *  -5.01346446  *   0.15378638  *
    32       N          2.16848935  *  -1.38105930  *   1.26958623  *
    33       C          7.41906554  *  -0.20799619  *  -0.09945601  *
    34       O          7.23658857  *   0.85479583  *  -0.64126631  *
    35       H          8.34394940  *  -0.75151076  *   0.24759474  *
    36       O          6.39560747  *  -0.96063060  *   0.32447500  *
    37       H          5.46790528  *  -0.57068256  *   0.23102699  *
    38       C          1.01316138  *   1.75218330  *  -1.73575495  *
    39       C          1.10627222  *   1.19614879  *  -0.34509495  *
    40       C          2.39119380  *   1.33960298  *   0.37246621  *
    41       C          3.41515669  *   2.06256569  *  -0.12636058  *
    42       C          3.57699635  *   2.33203582  *  -1.60058746  *
    43       C          2.38214479  *   1.84514805  *  -2.46002470  *
    44       C         -0.04168551  *   1.02160780  *   0.34234507  *
    45       C         -1.39107943  *   0.94865818  *  -0.26342700  *
    46       N          4.45248251  *   2.62742927  *   0.65531827  *
    47       C          4.49542420  *   2.45130010  *   2.11663071  *
    48       C          5.79483052  *   1.76038898  *   2.58724180  *
    49       C          4.33486955  *   3.86051098  *   2.73222265  *
    50       H          0.31349416  *   1.17367309  *  -2.39169333  *
    51       H          0.52773209  *   2.75072658  *  -1.53650722  *
    52       H          2.45551330  *   0.82113210  *   1.32843437  *
    53       H          4.47804946  *   1.73635057  *  -1.90043328  *
    54       H          3.81932605  *   3.40112236  *  -1.80633732  *
    55       H          2.62225548  *   0.81393136  *  -2.79511822  *
    56       H          2.23373335  *   2.53480913  *  -3.33216424  *
    57       H          0.04260957  *   0.85245659  *   1.39676128  *
    58       H         -1.57963394  *   2.03504407  *  -0.10592026  *
    59       H         -1.53101330  *   0.50911911  *  -1.26621084  *
    60       H         -2.11385362  *   0.36024664  *   0.28506158  *
    61       H          5.34171971  *   2.73690212  *   0.18117158  *
    62       H          3.64446974  *   1.81038909  *   2.49015273  *
    63       H          5.84872577  *   1.76824147  *   3.67847859  *
    64       H          5.84549411  *   0.71694280  *   2.25545725  *
    65       H          6.70706256  *   2.24937616  *   2.24811402  *
    66       H          5.13329004  *   4.53676700  *   2.42279195  *
    67       H          4.35395492  *   3.83300608  *   3.81947440  *
    68       H          3.39310400  *   4.32502838  *   2.38879897  *
 


          CARTESIAN COORDINATES 

    NO.       ATOM           X           Y           Z

     1         C          0.3140     -1.1812     -0.0329
     2         C          1.4109     -0.8381     -0.8505
     3         H         -0.6700     -1.2755     -0.3976
     4         H          1.3159     -0.8984     -1.9022
     5         C          2.6850     -0.9720      0.0139
     6         O          3.8175     -1.0067     -0.3387
     7         C          0.7646     -1.2017      1.3981
     8         O          0.0998     -1.1903      2.3884
     9         C          3.1228     -1.6196      2.2543
    10         C          3.9516     -2.7251      2.0670
    11         C          3.1992     -0.6636      3.2625
    12         C          5.0651     -2.7296      2.9122
    13         C          4.2561     -0.8145      4.1588
    14         H          2.5060      0.1803      3.3699
    15         C          5.1784     -1.8288      3.9559
    16         H          5.8228     -3.4749      2.7419
    17         H          4.3277     -0.1492      5.0010
    18         H          5.9906     -1.9679      4.6644
    19         C          3.8186     -3.9210      1.1412
    20         C          4.8440     -3.7923      0.0020
    21         H          4.6236     -2.9314     -0.6469
    22         H          5.8675     -3.6054      0.3714
    23         H          4.8752     -4.6861     -0.6295
    24         C          4.0931     -5.2077      1.9623
    25         H          3.4943     -5.2252      2.8806
    26         H          3.8491     -6.1040      1.3865
    27         H          5.1444     -5.3221      2.2528
    28         C          2.3883     -4.0295      0.5905
    29         H          1.6648     -3.8677      1.4026
    30         H          2.2115     -3.2874     -0.1912
    31         H          2.1996     -5.0135      0.1538
    32         N          2.1685     -1.3811      1.2696
    33         C          7.4191     -0.2080     -0.0995
    34         O          7.2366      0.8548     -0.6413
    35         H          8.3439     -0.7515      0.2476
    36         O          6.3956     -0.9606      0.3245
    37         H          5.4679     -0.5707      0.2310
    38         C          1.0132      1.7522     -1.7358
    39         C          1.1063      1.1961     -0.3451
    40         C          2.3912      1.3396      0.3725
    41         C          3.4152      2.0626     -0.1264
    42         C          3.5770      2.3320     -1.6006
    43         C          2.3821      1.8451     -2.4600
    44         C         -0.0417      1.0216      0.3423
    45         C         -1.3911      0.9487     -0.2634
    46         N          4.4525      2.6274      0.6553
    47         C          4.4954      2.4513      2.1166
    48         C          5.7948      1.7604      2.5872
    49         C          4.3349      3.8605      2.7322
    50         H          0.3135      1.1737     -2.3917
    51         H          0.5277      2.7507     -1.5365
    52         H          2.4555      0.8211      1.3284
    53         H          4.4780      1.7364     -1.9004
    54         H          3.8193      3.4011     -1.8063
    55         H          2.6223      0.8139     -2.7951
    56         H          2.2337      2.5348     -3.3322
    57         H          0.0426      0.8525      1.3968
    58         H         -1.5796      2.0350     -0.1059
    59         H         -1.5310      0.5091     -1.2662
    60         H         -2.1139      0.3602      0.2851
    61         H          5.3417      2.7369      0.1812
    62         H          3.6445      1.8104      2.4902
    63         H          5.8487      1.7682      3.6785
    64         H          5.8455      0.7169      2.2555
    65         H          6.7071      2.2494      2.2481
    66         H          5.1333      4.5368      2.4228
    67         H          4.3540      3.8330      3.8195
    68         H          3.3931      4.3250      2.3888

 General Reference for PM7:
 "Optimization of Parameters for Semiempirical Methods VI: More Modifications to the 
 NDDO Approximations and Re-optimization of Parameters", J. J. P. Stewart, J. Mol. Mod., 1:32, 19 (2013)
 https://link.springer.com/article/10.1007/s00894-012-1667-x

           Empirical Formula: C26 H36 N2 O4  =    68 atoms



      MOLECULAR POINT GROUP   :   C1  


      RHF CALCULATION, NO. OF DOUBLY OCCUPIED LEVELS = 87



          HEAT OF FORMATION =     -78.569793 KCALS/MOLE


          CARTESIAN COORDINATE DERIVATIVES

   NUMBER  ATOM         X            Y            Z

     1       C    -87.478089     2.989456    26.694620
     2       C     85.789055    16.512958    82.166798
     3       H     14.842853    -1.561364     8.963132
     4       H    -20.505816     1.663310    -6.018976
     5       C     26.259811   -71.942063     5.681563
     6       O    -24.978448     8.111604    -2.625051
     7       C      2.826426   -21.647436    32.814423
     8       O      3.400772    14.964110     1.630815
     9       C     13.459173    -4.389336    -2.515089
    10       C     -6.531907    25.735515     6.561918
    11       C     -4.816527    26.629251     0.112833
    12       C      2.124864    -1.174270     3.900767
    13       C      7.125090    -7.092887    -6.276920
    14       H      0.588026    -2.028197     9.409710
    15       C     -1.173156    16.863689     2.022972
    16       H     -4.065180     8.579128     5.670991
    17       H     -0.358987     6.868933    -4.750928
    18       H     -3.744642     3.239686    -2.973136
    19       C      0.175655    -0.888173    -2.011088
    20       C     -1.255409     1.997551    -0.321341
    21       H      1.193262    -0.282502     2.493928
    22       H      4.993435    -2.296955     1.157097
    23       H      2.228735     0.724528    -1.587323
    24       C     -1.451708    -0.364169     0.299702
    25       H     -0.570219    -1.063142    -0.305644
    26       H      0.450499    -2.197264     0.046918
    27       H     -0.419463    -2.115555    -2.832077
    28       C     -1.342067     2.523817     5.353867
    29       H      0.305099    -3.152272     2.916185
    30       H      1.089914    -3.540896     4.613273
    31       H      0.210705    -0.439018     0.451411
    32       N      3.115199    -5.285878    -7.755768
    33       C      8.753852    12.047487     2.174317
    34       O     -3.542208     6.677266     6.567352
    35       H     -2.848676   -19.493326   -12.738198
    36       O      1.425482     3.288494    -5.168862
    37       H     -4.616803     0.863924    10.800131
    38       C     -8.798488     5.419126    -1.996085
    39       C    -20.126480    13.811339   -78.723247
    40       C     20.312057   -22.685966     7.884197
    41       C    -23.787769    24.338993   -18.201144
    42       C      4.937264    -3.653625     0.207054
    43       C     11.499066     1.277755   -11.406880
    44       C    -11.402400     9.332733    -3.697389
    45       C      0.858367     7.917033   -19.512283
    46       N     12.817772   -30.739693    21.894076
    47       C     -0.086423     6.490881    -1.658484
    48       C     -0.387810    -3.967223    -5.097954
    49       C     -3.244924    -2.554941     2.224351
    50       H     -0.711394     7.190184    -6.456961
    51       H    -15.233631    -7.494610     5.607152
    52       H      0.177687     2.586900   -26.808110
    53       H     -4.257214    -3.931723    -3.147111
    54       H      5.995754    -0.885881     4.905439
    55       H     -5.653579    -5.104166    -2.891353
    56       H      0.049020     9.049153     9.999361
    57       H     15.629191     4.137289   -16.114981
    58       H     10.999429   -35.198484    -3.579928
    59       H    -11.940801     6.591709   -15.690334
    60       H     12.153238     7.457244    -2.505715
    61       H      1.579195     5.843930    -0.746071
    62       H     -3.947050    -5.006691    -2.090977
    63       H      2.851630     1.419559     1.071700
    64       H      1.227268    -1.427952     0.082487
    65       H     -3.169433    -3.838760    -2.809434
    66       H     -3.396805    -0.097124     0.820732
    67       H      3.844628     0.306353     0.879773
    68       H      0.554179     4.090798     2.933782
 


          GRADIENT NORM = 227.93373



 ** GRADIENT IS TOO LARGE TO ALLOW THE FORCE MATRIX TO BE CALCULATED, (LIMIT = 16.5) **



 THE GEOMETRY IS NOT AT A STATIONARY POINT ON THE POTENTIAL ENERGY SURFACE

 EITHER ADD 'LET' OR OPTIMIZE THE GEOMETRY SO THAT THE GEOMETRY IS AT A STATIONARY POINT.
 (FOR A TRANSITION STATE, USE 'TS', FOR A GROUND STATE DO A NORMAL GEOMETRY OPTIMIZATION)

          Gradient in FORCE is too large, geometry is not at a stationary point on the P.E.S.

 ***************************************************************************************
 *                                                                                     *
 *     Error and normal termination messages reported in this calculation              *
 *                                                                                     *
 * Gradient in FORCE is too large, geometry is not at a stationary point on the P.E.S. *
 * JOB ENDED NORMALLY                                                                  *
 *                                                                                     *
 ***************************************************************************************



 TOTAL JOB TIME:             0.20 SECONDS

 == MOPAC DONE ==
