 *******************************************************************************
 ** Site#: 36969        For non-commercial use only    Version 21.051W 64BITS **
 *******************************************************************************
 ** Cite this program as: MOPAC2016, Version: 21.051W, James J. P. Stewart,   **
 ** Stewart Computational Chemistry, web: HTTP://OpenMOPAC.net. Days left: 282**
 *******************************************************************************
 **                                                                           **
 **                                MOPAC2016                                  **
 **                                                                           **
 *******************************************************************************

                              PM7 CALCULATION RESULTS

 *******************************************************************************
 *  CALCULATION DONE:                                Fri May 14 09:26:48 2021  *
 *  PM7        - The PM7 Hamiltonian to be used
 *  FORCE      - FORCE CALCULATION SPECIFIED
 *  T=         - A TIME OF 172800.0 SECONDS REQUESTED
 *  DUMP=N     - RESTART FILE WRITTEN EVERY 7200.0 SECONDS REQUESTED
 *******************************************************************************
PM7 FORCE
 TS_4_FREQ

   ATOM   CHEMICAL          X               Y               Z
  NUMBER   SYMBOL      (ANGSTROMS)     (ANGSTROMS)     (ANGSTROMS)
 
     1       C          0.72925644  *  -0.79833370  *   0.25919583  *
     2       C          2.03123512  *  -0.80233672  *   0.93269176  *
     3       H         -0.13332150  *  -1.42111803  *   0.63663229  *
     4       H          2.15904829  *  -0.65318157  *   1.98210907  *
     5       C          3.08918700  *  -1.12061443  *   0.04583479  *
     6       O          4.30170725  *  -1.17114262  *   0.14516927  *
     7       C          1.10966614  *  -1.16340879  *  -1.19228479  *
     8       O          0.34140278  *  -1.33248260  *  -2.10090026  *
     9       C          3.07337506  *  -2.21612180  *  -2.28797336  *
    10       C          3.46518426  *  -1.79100352  *  -3.58248843  *
    11       C          3.18187776  *  -3.56946031  *  -1.90369081  *
    12       C          3.99681773  *  -2.77749141  *  -4.41743787  *
    13       C          3.69920006  *  -4.51420655  *  -2.78037319  *
    14       H          2.83798729  *  -3.89223212  *  -0.91173213  *
    15       C          4.12197857  *  -4.10898273  *  -4.04161739  *
    16       H          4.33050813  *  -2.49372574  *  -5.40624733  *
    17       H          3.77463910  *  -5.56361342  *  -2.50176797  *
    18       H          4.57844156  *  -4.81654622  *  -4.73380256  *
    19       C          3.37325565  *  -0.35365631  *  -4.09819616  *
    20       C          4.26141708  *   0.49456964  *  -3.17555054  *
    21       H          4.00252708  *   0.30196260  *  -2.12348952  *
    22       H          5.31490293  *   0.20480239  *  -3.27377310  *
    23       H          4.16180617  *   1.56223349  *  -3.36398833  *
    24       C          3.89547610  *  -0.14814451  *  -5.54192594  *
    25       H          3.32025878  *  -0.71970858  *  -6.27403072  *
    26       H          3.82670312  *   0.90510298  *  -5.83736932  *
    27       H          4.94655846  *  -0.43354965  *  -5.63474456  *
    28       C          1.91628591  *   0.13949299  *  -4.09540689  *
    29       H          1.23957429  *  -0.61873906  *  -4.50101021  *
    30       H          1.53833908  *   0.37897350  *  -3.09742575  *
    31       H          1.77732914  *   1.05608325  *  -4.67610171  *
    32       N          2.51515133  *  -1.32686608  *  -1.30474267  *
    33       C          7.10505709  *   0.88389204  *  -0.82106907  *
    34       O          7.07889338  *   1.63643898  *   0.11134839  *
    35       H          7.69387686  *   0.92887512  *  -1.71718584  *
    36       O          6.32856610  *  -0.14342428  *  -0.94370133  *
    37       H          5.63557239  *  -0.54319474  *  -0.38520433  *
    38       C          0.96938694  *   2.66688598  *  -0.90616815  *
    39       C          0.89867083  *   1.75996624  *   0.27041725  *
    40       C          1.92006535  *   1.79956854  *   1.20699735  *
    41       C          3.23116172  *   2.04473864  *   0.76551312  *
    42       C          3.48770207  *   2.62652795  *  -0.59549711  *
    43       C          2.33275704  *   2.49583018  *  -1.56420843  *
    44       C         -0.11919654  *   0.74866570  *   0.44639737  *
    45       C         -1.32560358  *   0.75549512  *  -0.47245731  *
    46       N          4.29337430  *   1.67961299  *   1.47956259  *
    47       C          4.22851293  *   1.49960889  *   2.94796150  *
    48       C          5.45769491  *   0.72395745  *   3.38124617  *
    49       C          4.14911614  *   2.86759045  *   3.60262214  *
    50       H          0.12481359  *   2.55043816  *  -1.60974950  *
    51       H          0.87844103  *   3.71406620  *  -0.55271458  *
    52       H          1.72016110  *   1.43990446  *   2.21370339  *
    53       H          4.40732339  *   2.21354327  *  -1.05868643  *
    54       H          3.71220992  *   3.67922759  *  -0.50195182  *
    55       H          2.36309627  *   1.50714822  *  -2.03731090  *
    56       H          2.47888201  *   3.20033316  *  -2.38775199  *
    57       H         -0.45457346  *   0.66191169  *   1.49846660  *
    58       H         -1.78207590  *   1.76671481  *  -0.56659434  *
    59       H         -0.97023733  *   0.42014577  *  -1.46349400  *
    60       H         -2.09131100  *   0.02954059  *  -0.15059187  *
    61       H          5.21661645  *   1.65146474  *   1.08285131  *
    62       H          3.30713317  *   0.93042857  *   3.23648002  *
    63       H          5.40678894  *   0.45351292  *   4.44692982  *
    64       H          5.51475194  *  -0.20066430  *   2.79691466  *
    65       H          6.37868238  *   1.28213558  *   3.23238094  *
    66       H          5.03776095  *   3.45658115  *   3.38340818  *
    67       H          4.05802666  *   2.80619795  *   4.66421004  *
    68       H          3.27046203  *   3.41433636  *   3.24172907  *
 


          CARTESIAN COORDINATES 

    NO.       ATOM           X           Y           Z

     1         C          0.7293     -0.7983      0.2592
     2         C          2.0312     -0.8023      0.9327
     3         H         -0.1333     -1.4211      0.6366
     4         H          2.1590     -0.6532      1.9821
     5         C          3.0892     -1.1206      0.0458
     6         O          4.3017     -1.1711      0.1452
     7         C          1.1097     -1.1634     -1.1923
     8         O          0.3414     -1.3325     -2.1009
     9         C          3.0734     -2.2161     -2.2880
    10         C          3.4652     -1.7910     -3.5825
    11         C          3.1819     -3.5695     -1.9037
    12         C          3.9968     -2.7775     -4.4174
    13         C          3.6992     -4.5142     -2.7804
    14         H          2.8380     -3.8922     -0.9117
    15         C          4.1220     -4.1090     -4.0416
    16         H          4.3305     -2.4937     -5.4062
    17         H          3.7746     -5.5636     -2.5018
    18         H          4.5784     -4.8165     -4.7338
    19         C          3.3733     -0.3537     -4.0982
    20         C          4.2614      0.4946     -3.1756
    21         H          4.0025      0.3020     -2.1235
    22         H          5.3149      0.2048     -3.2738
    23         H          4.1618      1.5622     -3.3640
    24         C          3.8955     -0.1481     -5.5419
    25         H          3.3203     -0.7197     -6.2740
    26         H          3.8267      0.9051     -5.8374
    27         H          4.9466     -0.4335     -5.6347
    28         C          1.9163      0.1395     -4.0954
    29         H          1.2396     -0.6187     -4.5010
    30         H          1.5383      0.3790     -3.0974
    31         H          1.7773      1.0561     -4.6761
    32         N          2.5152     -1.3269     -1.3047
    33         C          7.1051      0.8839     -0.8211
    34         O          7.0789      1.6364      0.1113
    35         H          7.6939      0.9289     -1.7172
    36         O          6.3286     -0.1434     -0.9437
    37         H          5.6356     -0.5432     -0.3852
    38         C          0.9694      2.6669     -0.9062
    39         C          0.8987      1.7600      0.2704
    40         C          1.9201      1.7996      1.2070
    41         C          3.2312      2.0447      0.7655
    42         C          3.4877      2.6265     -0.5955
    43         C          2.3328      2.4958     -1.5642
    44         C         -0.1192      0.7487      0.4464
    45         C         -1.3256      0.7555     -0.4725
    46         N          4.2934      1.6796      1.4796
    47         C          4.2285      1.4996      2.9480
    48         C          5.4577      0.7240      3.3812
    49         C          4.1491      2.8676      3.6026
    50         H          0.1248      2.5504     -1.6097
    51         H          0.8784      3.7141     -0.5527
    52         H          1.7202      1.4399      2.2137
    53         H          4.4073      2.2135     -1.0587
    54         H          3.7122      3.6792     -0.5020
    55         H          2.3631      1.5071     -2.0373
    56         H          2.4789      3.2003     -2.3878
    57         H         -0.4546      0.6619      1.4985
    58         H         -1.7821      1.7667     -0.5666
    59         H         -0.9702      0.4201     -1.4635
    60         H         -2.0913      0.0295     -0.1506
    61         H          5.2166      1.6515      1.0829
    62         H          3.3071      0.9304      3.2365
    63         H          5.4068      0.4535      4.4469
    64         H          5.5148     -0.2007      2.7969
    65         H          6.3787      1.2821      3.2324
    66         H          5.0378      3.4566      3.3834
    67         H          4.0580      2.8062      4.6642
    68         H          3.2705      3.4143      3.2417

 General Reference for PM7:
 "Optimization of Parameters for Semiempirical Methods VI: More Modifications to the 
 NDDO Approximations and Re-optimization of Parameters", J. J. P. Stewart, J. Mol. Mod., 1:32, 19 (2013)
 https://link.springer.com/article/10.1007/s00894-012-1667-x

           Empirical Formula: C26 H36 N2 O4  =    68 atoms



      MOLECULAR POINT GROUP   :   C1  


      RHF CALCULATION, NO. OF DOUBLY OCCUPIED LEVELS = 87



          HEAT OF FORMATION =    -135.401737 KCALS/MOLE


          CARTESIAN COORDINATE DERIVATIVES

   NUMBER  ATOM         X            Y            Z

     1       C      4.413583     8.282594    23.260723
     2       C      1.526060    -0.242180   -18.657028
     3       H    -16.639664     9.866582    -8.410891
     4       H      3.085896     1.272477    -7.306599
     5       C     22.939695     1.254352    14.889893
     6       O    -10.704341   -17.204394     9.142419
     7       C     -3.018427    -4.701679     3.447072
     8       O      7.405237     1.572722    -1.942632
     9       C      1.828538     1.332217     4.325101
    10       C      1.241420    -6.385114     4.263434
    11       C      2.667479     1.555496     4.605724
    12       C      1.591806     3.709810     2.731588
    13       C      0.010254     1.104384    -1.283414
    14       H     -0.542887     6.680753     0.614445
    15       C     -3.070245     1.289502    -0.996316
    16       H      0.740732     3.996734    -4.829442
    17       H     -0.808286    -0.973684     2.711419
    18       H      1.764698    -2.305108     1.240866
    19       C     -0.081902    -3.285937     1.555261
    20       C     -3.140698    -1.585744     0.012087
    21       H     -2.476901     0.749261     0.393944
    22       H      0.158062     1.069865     0.102614
    23       H      0.290177     2.895380    -2.443873
    24       C     -1.755366    -2.675667    -1.025456
    25       H      1.087627    -1.882569    -0.070813
    26       H     -0.468547    -1.639867     0.807130
    27       H     -0.978408    -0.344809    -0.543195
    28       C      0.290389     1.616367     1.398174
    29       H      0.608489    -1.629865    -2.079068
    30       H     -2.664162    -2.716851    -1.940317
    31       H     -1.307550     1.693971    -3.195912
    32       N      9.886428   -11.024952     6.672889
    33       C      6.747855    -1.258159    -4.530456
    34       O     -6.690080    -4.170669    29.084938
    35       H     -7.893323    12.134822    -4.896198
    36       O      4.030052    12.439818   -35.445131
    37       H      8.187542   -11.247953    11.793966
    38       C     -3.774657     0.170444     7.212857
    39       C    -10.375491    -2.450983     1.973210
    40       C     22.168042    -0.103452     5.427131
    41       C     -3.404947     4.617965    -6.136622
    42       C     -7.787123    -5.673626    -3.250919
    43       C     11.302377    -1.406137    -3.982535
    44       C     -2.716303   -14.582316   -19.985439
    45       C     -7.223027     7.965874    -1.702729
    46       N      1.483427     0.365574    14.650508
    47       C      3.678563    -8.132143    -4.145599
    48       C     -1.678185    -6.577817     0.747695
    49       C      6.679879    13.893253     1.135452
    50       H     -1.145816     0.505084    -6.056330
    51       H      2.043948     0.090933     5.554191
    52       H     -2.380546    -0.333758    -1.929392
    53       H     -3.383374    -1.454050    -5.874029
    54       H    -10.069161    10.877972    19.772833
    55       H      3.807998    -5.717622   -13.540900
    56       H      6.332380     8.723812     1.731106
    57       H     -2.896421    -2.306662     0.484054
    58       H     -3.558588    -8.691728    -9.807769
    59       H     10.793393     1.819654     1.025743
    60       H     -1.308301     5.394406     3.012960
    61       H    -10.073934     9.726422    -8.724559
    62       H      4.763786    -3.023346    -6.301002
    63       H      0.649314     1.462086    -1.795334
    64       H     -4.347956    -3.161754    -7.714340
    65       H     -5.106801     4.135534    -1.247626
    66       H     -3.816566     5.825036     3.437669
    67       H     -7.964471   -13.710191     8.793693
    68       H      1.047719     2.510003     3.779441
 


          GRADIENT NORM = 105.58119



 ** GRADIENT IS TOO LARGE TO ALLOW THE FORCE MATRIX TO BE CALCULATED, (LIMIT = 16.5) **



 THE GEOMETRY IS NOT AT A STATIONARY POINT ON THE POTENTIAL ENERGY SURFACE

 EITHER ADD 'LET' OR OPTIMIZE THE GEOMETRY SO THAT THE GEOMETRY IS AT A STATIONARY POINT.
 (FOR A TRANSITION STATE, USE 'TS', FOR A GROUND STATE DO A NORMAL GEOMETRY OPTIMIZATION)

          Gradient in FORCE is too large, geometry is not at a stationary point on the P.E.S.

 ***************************************************************************************
 *                                                                                     *
 *     Error and normal termination messages reported in this calculation              *
 *                                                                                     *
 * Gradient in FORCE is too large, geometry is not at a stationary point on the P.E.S. *
 * JOB ENDED NORMALLY                                                                  *
 *                                                                                     *
 ***************************************************************************************



 TOTAL JOB TIME:             0.18 SECONDS

 == MOPAC DONE ==
