 *******************************************************************************
 ** Site#: 36969        For non-commercial use only    Version 21.051W 64BITS **
 *******************************************************************************
 ** Cite this program as: MOPAC2016, Version: 21.051W, James J. P. Stewart,   **
 ** Stewart Computational Chemistry, web: HTTP://OpenMOPAC.net. Days left: 292**
 *******************************************************************************
 **                                                                           **
 **                                MOPAC2016                                  **
 **                                                                           **
 *******************************************************************************

                              PM7 CALCULATION RESULTS

 *******************************************************************************
 *  CALCULATION DONE:                                Tue May  4 17:03:32 2021  *
 *  PM7        - The PM7 Hamiltonian to be used
 *  LET        - OVERRIDE SOME SAFETY CHECKS
 *  FORCE      - FORCE CALCULATION SPECIFIED
 *  T=         - A TIME OF 172800.0 SECONDS REQUESTED
 *  DUMP=N     - RESTART FILE WRITTEN EVERY 7200.0 SECONDS REQUESTED
 *******************************************************************************
PM7 FORCE LET
 TS_FREQ

   ATOM   CHEMICAL          X               Y               Z
  NUMBER   SYMBOL      (ANGSTROMS)     (ANGSTROMS)     (ANGSTROMS)
 
     1       H          0.73511300  *   4.20422500  *  -2.05410800  *
     2       C          1.38051500  *   4.35923000  *  -1.18723300  *
     3       C          0.85853800  *   4.17888800  *   0.10483700  *
     4       C          2.70123100  *   4.73637700  *  -1.36691500  *
     5       N         -0.47817100  *   3.69481300  *   0.16923800  *
     6       C          1.62793200  *   4.46317800  *   1.24458300  *
     7       C          3.51379700  *   4.91445100  *  -0.24862900  *
     8       H          3.10451800  *   4.87462700  *  -2.36755900  *
     9       C         -0.86600900  *   2.41771500  *   0.65543200  *
    10       C         -1.61106900  *   4.34922900  *  -0.41141500  *
    11       C          1.14606000  *   4.47352100  *   2.68787300  *
    12       C          2.98003900  *   4.77598400  *   1.02496800  *
    13       H          4.56758800  *   5.15903900  *  -0.37554900  *
    14       C         -2.34362600  *   2.36110500  *   0.55732100  *
    15       O         -0.09766300  *   1.58724800  *   1.08666600  *
    16       C         -2.79712800  *   3.45109300  *  -0.11012900  *
    17       O         -1.56054000  *   5.40240100  *  -0.97627600  *
    18       C          1.55371600  *   3.14500100  *   3.34459900  *
    19       C         -0.36860200  *   4.68845200  *   2.84407600  *
    20       C          1.82411900  *   5.64186400  *   3.44386500  *
    21       H          3.64345600  *   4.91672600  *   1.87953000  *
    22       H         -2.89295900  *   1.53831800  *   0.96930400  *
    23       H         -3.80022000  *   3.84289600  *  -0.18146300  *
    24       H          2.61370400  *   2.92164600  *   3.17817000  *
    25       H          1.37812500  *   3.16615700  *   4.42419500  *
    26       H          0.98290000  *   2.29948800  *   2.94082900  *
    27       H         -0.73235100  *   5.46225500  *   2.15916300  *
    28       H         -0.61926800  *   5.00985500  *   3.86169800  *
    29       H         -0.93971700  *   3.77202700  *   2.67347700  *
    30       H          1.39142000  *   5.76994600  *   4.44134000  *
    31       H          1.69501100  *   6.58466800  *   2.90141400  *
    32       H          2.89553000  *   5.47575600  *   3.58851200  *
    33       C          6.83297200  *   3.51224400  *  -0.69405600  *
    34       C          6.18093700  *   2.43782400  *  -0.08865300  *
    35       C          6.49464400  *   3.89974100  *  -1.98790000  *
    36       H          7.61093400  *   4.04589900  *  -0.15256800  *
    37       C          5.18168800  *   1.75537900  *  -0.77803300  *
    38       H          6.46849400  *   2.13579400  *   0.91794000  *
    39       C          5.50106700  *   3.20936100  *  -2.68223100  *
    40       H          7.00513600  *   4.73655900  *  -2.45809300  *
    41       C          4.44005300  *   0.58025800  *  -0.18336700  *
    42       C          4.84674800  *   2.13936400  *  -2.08108900  *
    43       H          5.23785700  *   3.50757100  *  -3.69490400  *
    44       N          4.85896000  *   0.25785700  *   1.17477700  *
    45       C          2.94152000  *   0.90894800  *  -0.21269500  *
    46       H          4.61077100  *  -0.32590300  *  -0.85197600  *
    47       H          4.06439800  *   1.60580000  *  -2.62531600  *
    48       C          5.03793200  *  -1.07932900  *   1.49439000  *
    49       H          4.65586000  *   0.93756100  *   1.89974100  *
    50       O          2.50593900  *   1.41389300  *   0.93203000  *
    51       O          2.22805800  *   0.72012400  *  -1.16961000  *
    52       O          5.21562500  *  -1.18335600  *   2.83248800  *
    53       O          5.06976400  *  -1.98146100  *   0.68507100  *
    54       H          1.47489800  *   1.57180700  *   0.96202200  *
    55       C          5.46742900  *  -2.49058400  *   3.40582100  *
    56       C          5.60597000  *  -2.12444200  *   4.88762500  *
    57       C          6.76156800  *  -3.05416300  *   2.83448400  *
    58       C          4.26219600  *  -3.38700200  *   3.15047100  *
    59       H          4.69372300  *  -1.64487600  *   5.26406800  *
    60       H          5.79909600  *  -3.01462900  *   5.49353100  *
    61       H          6.42909100  *  -1.41702900  *   5.04631100  *
    62       H          7.57766300  *  -2.32493500  *   2.89933000  *
    63       H          7.07341500  *  -3.95953500  *   3.36411300  *
    64       H          6.65134900  *  -3.31688600  *   1.77032600  *
    65       H          3.32722200  *  -2.88822000  *   3.43360200  *
    66       H          4.33144300  *  -4.32122000  *   3.71615200  *
    67       H          4.17704100  *  -3.65239000  *   2.08504300  *
    68       C         -0.71894700  *  -1.62999700  *  -1.46044600  *
    69       N          0.04485700  *  -0.64806900  *  -2.25544500  *
    70       H         -1.76577200  *  -1.66766600  *  -1.86360400  *
    71       C         -0.45680500  *   0.59756100  *  -2.53858500  *
    72       H          1.05921800  *  -0.73352600  *  -2.16566300  *
    73       C          0.51369700  *   1.52692900  *  -3.22069300  *
    74       C         -1.74383400  *   0.99994100  *  -2.28938200  *
    75       C         -0.24227800  *   2.42198800  *  -4.20306400  *
    76       H          1.03197300  *   2.13769100  *  -2.44489500  *
    77       H          1.32332700  *   0.97461700  *  -3.73787100  *
    78       C         -2.22490700  *   2.29873000  *  -2.63880400  *
    79       H         -2.44278100  *   0.33537000  *  -1.79519900  *
    80       C         -1.35414100  *   3.19261000  *  -3.48357700  *
    81       H          0.45305300  *   3.12363800  *  -4.69896700  *
    82       H         -0.68140700  *   1.80188800  *  -5.00957800  *
    83       C         -3.42012100  *   2.79158800  *  -2.20185800  *
    84       H         -0.91812300  *   4.00262500  *  -2.86144700  *
    85       H         -1.97910800  *   3.71955900  *  -4.23487200  *
    86       C         -4.53145600  *   1.91606900  *  -1.71681500  *
    87       H         -4.94036900  *   1.33160900  *  -2.55597000  *
    88       H         -4.20773800  *   1.19089900  *  -0.95881700  *
    89       H         -5.36273500  *   2.49101400  *  -1.29377100  *
    90       H         -3.72619700  *   3.79779900  *  -2.48007200  *
    91       C         -0.05167000  *  -3.00251200  *  -1.64609900  *
    92       H          0.02653900  *  -3.26553300  *  -2.70764000  *
    93       H          0.95955200  *  -3.02430200  *  -1.22215100  *
    94       H         -0.63409600  *  -3.78529600  *  -1.14985500  *
    95       C         -0.74705300  *  -1.24856700  *   0.02563500  *
    96       H         -1.26525000  *  -0.29260200  *   0.18260200  *
    97       H         -1.25455300  *  -2.00762000  *   0.62592300  *
    98       H          0.26386800  *  -1.11720900  *   0.43198200  *
 


          CARTESIAN COORDINATES 

    NO.       ATOM           X           Y           Z

     1         H          0.7351      4.2042     -2.0541
     2         C          1.3805      4.3592     -1.1872
     3         C          0.8585      4.1789      0.1048
     4         C          2.7012      4.7364     -1.3669
     5         N         -0.4782      3.6948      0.1692
     6         C          1.6279      4.4632      1.2446
     7         C          3.5138      4.9145     -0.2486
     8         H          3.1045      4.8746     -2.3676
     9         C         -0.8660      2.4177      0.6554
    10         C         -1.6111      4.3492     -0.4114
    11         C          1.1461      4.4735      2.6879
    12         C          2.9800      4.7760      1.0250
    13         H          4.5676      5.1590     -0.3755
    14         C         -2.3436      2.3611      0.5573
    15         O         -0.0977      1.5872      1.0867
    16         C         -2.7971      3.4511     -0.1101
    17         O         -1.5605      5.4024     -0.9763
    18         C          1.5537      3.1450      3.3446
    19         C         -0.3686      4.6885      2.8441
    20         C          1.8241      5.6419      3.4439
    21         H          3.6435      4.9167      1.8795
    22         H         -2.8930      1.5383      0.9693
    23         H         -3.8002      3.8429     -0.1815
    24         H          2.6137      2.9216      3.1782
    25         H          1.3781      3.1662      4.4242
    26         H          0.9829      2.2995      2.9408
    27         H         -0.7324      5.4623      2.1592
    28         H         -0.6193      5.0099      3.8617
    29         H         -0.9397      3.7720      2.6735
    30         H          1.3914      5.7699      4.4413
    31         H          1.6950      6.5847      2.9014
    32         H          2.8955      5.4758      3.5885
    33         C          6.8330      3.5122     -0.6941
    34         C          6.1809      2.4378     -0.0887
    35         C          6.4946      3.8997     -1.9879
    36         H          7.6109      4.0459     -0.1526
    37         C          5.1817      1.7554     -0.7780
    38         H          6.4685      2.1358      0.9179
    39         C          5.5011      3.2094     -2.6822
    40         H          7.0051      4.7366     -2.4581
    41         C          4.4401      0.5803     -0.1834
    42         C          4.8467      2.1394     -2.0811
    43         H          5.2379      3.5076     -3.6949
    44         N          4.8590      0.2579      1.1748
    45         C          2.9415      0.9089     -0.2127
    46         H          4.6108     -0.3259     -0.8520
    47         H          4.0644      1.6058     -2.6253
    48         C          5.0379     -1.0793      1.4944
    49         H          4.6559      0.9376      1.8997
    50         O          2.5059      1.4139      0.9320
    51         O          2.2281      0.7201     -1.1696
    52         O          5.2156     -1.1834      2.8325
    53         O          5.0698     -1.9815      0.6851
    54         H          1.4749      1.5718      0.9620
    55         C          5.4674     -2.4906      3.4058
    56         C          5.6060     -2.1244      4.8876
    57         C          6.7616     -3.0542      2.8345
    58         C          4.2622     -3.3870      3.1505
    59         H          4.6937     -1.6449      5.2641
    60         H          5.7991     -3.0146      5.4935
    61         H          6.4291     -1.4170      5.0463
    62         H          7.5777     -2.3249      2.8993
    63         H          7.0734     -3.9595      3.3641
    64         H          6.6513     -3.3169      1.7703
    65         H          3.3272     -2.8882      3.4336
    66         H          4.3314     -4.3212      3.7162
    67         H          4.1770     -3.6524      2.0850
    68         C         -0.7189     -1.6300     -1.4604
    69         N          0.0449     -0.6481     -2.2554
    70         H         -1.7658     -1.6677     -1.8636
    71         C         -0.4568      0.5976     -2.5386
    72         H          1.0592     -0.7335     -2.1657
    73         C          0.5137      1.5269     -3.2207
    74         C         -1.7438      0.9999     -2.2894
    75         C         -0.2423      2.4220     -4.2031
    76         H          1.0320      2.1377     -2.4449
    77         H          1.3233      0.9746     -3.7379
    78         C         -2.2249      2.2987     -2.6388
    79         H         -2.4428      0.3354     -1.7952
    80         C         -1.3541      3.1926     -3.4836
    81         H          0.4531      3.1236     -4.6990
    82         H         -0.6814      1.8019     -5.0096
    83         C         -3.4201      2.7916     -2.2019
    84         H         -0.9181      4.0026     -2.8614
    85         H         -1.9791      3.7196     -4.2349
    86         C         -4.5315      1.9161     -1.7168
    87         H         -4.9404      1.3316     -2.5560
    88         H         -4.2077      1.1909     -0.9588
    89         H         -5.3627      2.4910     -1.2938
    90         H         -3.7262      3.7978     -2.4801
    91         C         -0.0517     -3.0025     -1.6461
    92         H          0.0265     -3.2655     -2.7076
    93         H          0.9596     -3.0243     -1.2222
    94         H         -0.6341     -3.7853     -1.1499
    95         C         -0.7471     -1.2486      0.0256
    96         H         -1.2652     -0.2926      0.1826
    97         H         -1.2546     -2.0076      0.6259
    98         H          0.2639     -1.1172      0.4320

 General Reference for PM7:
 "Optimization of Parameters for Semiempirical Methods VI: More Modifications to the 
 NDDO Approximations and Re-optimization of Parameters", J. J. P. Stewart, J. Mol. Mod., 1:32, 19 (2013)
 https://link.springer.com/article/10.1007/s00894-012-1667-x

           Empirical Formula: C38 H51 N3 O6  =    98 atoms



      MOLECULAR POINT GROUP   :   C1  


      RHF CALCULATION, NO. OF DOUBLY OCCUPIED LEVELS = 127



          HEAT OF FORMATION =    -253.168643 KCALS/MOLE


          CARTESIAN COORDINATE DERIVATIVES

   NUMBER  ATOM         X            Y            Z

     1       H      0.069452     0.032232    -0.000606
     2       C      0.084631    -0.018812    -0.024018
     3       C     -0.086005     0.030806    -0.003780
     4       C     -0.060985    -0.016493    -0.067688
     5       N      0.032546    -0.021454    -0.075236
     6       C      0.091392     0.036847     0.037597
     7       C      0.118648     0.039548    -0.046941
     8       H     -0.045706     0.009397     0.068565
     9       C      0.014920     0.002689    -0.120693
    10       C      0.051804     0.078794     0.087636
    11       C      0.025327     0.025022     0.005120
    12       C     -0.037464     0.028014    -0.063636
    13       H     -0.063138     0.021844    -0.063202
    14       C      0.008316     0.002219    -0.093291
    15       O      3.508057    -5.375601     1.826931
    16       C    -17.075247    -5.306140     4.337509
    17       O     -0.019950    -0.093562    -0.001134
    18       C     -0.021079     0.008690     0.045447
    19       C     -0.022940     0.018649     0.042471
    20       C      0.007050    -0.045377    -0.040756
    21       H      0.039836    -0.007480    -0.023835
    22       H     -0.063221    -0.006984    -0.005129
    23       H     -0.132640    -0.034999    -0.023437
    24       H      0.013893     0.024560    -0.066440
    25       H     -0.069556    -0.008028    -0.034276
    26       H      0.022513     0.036078    -0.029783
    27       H     -0.069820    -0.024384     0.032535
    28       H     -0.079170     0.120711     0.077134
    29       H      0.001481     0.037352     0.037976
    30       H      0.009223    -0.073052     0.054205
    31       H     -0.021572    -0.073522     0.031686
    32       H     -0.088845     0.026407    -0.014713
    33       C     -0.018923    -0.010671    -0.040393
    34       C     -0.050171    -0.076891     0.023342
    35       C     -0.027590     0.049906    -0.017319
    36       H     -0.061893     0.021345    -0.042860
    37       C      0.086595    -0.012179     0.027960
    38       H     -0.021806    -0.065209     0.041706
    39       C      0.128945    -0.044617    -0.041113
    40       H     -0.064354     0.096879     0.079185
    41       C     -0.002144     0.091131    -0.036622
    42       C      0.043826    -0.054721     0.031780
    43       H      0.023863     0.067022    -0.006354
    44       N      0.013008     0.075388    -0.027600
    45       C     -0.050712     0.064811     0.071907
    46       H      0.042854    -0.057640    -0.017374
    47       H      0.069069    -0.020926    -0.009053
    48       C     -0.168070     0.057072    -0.020610
    49       H     -0.024691     0.039505    -0.047904
    50       O     -0.022486    -0.028734    -0.166267
    51       O      0.056657    -0.103266     0.049130
    52       O     -0.118475    -0.101458     0.067276
    53       O      0.007088    -0.065662     0.040204
    54       H     -3.438979     5.399577    -1.691827
    55       C      0.014309    -0.018333    -0.010836
    56       C      0.045639     0.003333    -0.033362
    57       C     -0.060627     0.061139     0.015537
    58       C      0.048024    -0.030029     0.016724
    59       H     -0.016591    -0.068383    -0.004566
    60       H     -0.045648    -0.025178     0.070389
    61       H     -0.021539     0.004769    -0.044170
    62       H     -0.047588     0.051893    -0.031814
    63       H      0.014520    -0.068115     0.077234
    64       H     -0.004184    -0.098538     0.003292
    65       H      0.035309    -0.042301    -0.015737
    66       H      0.007304     0.112530     0.064276
    67       H     -0.081814     0.026975    -0.020206
    68       C     -0.065494    -0.033683     0.072547
    69       N     -0.050470    -0.071973     0.019500
    70       H     -0.036500     0.050618    -0.074836
    71       C      0.136185    -0.006214     0.148972
    72       H      0.060394    -0.052743    -0.041201
    73       C      0.055729     0.011415     0.082962
    74       C     -0.069179     0.057655    -0.033307
    75       C      0.085037     0.056010     0.030235
    76       H      0.028480     0.010605    -0.044806
    77       H     -0.025138    -0.065072     0.065665
    78       C      0.053543     0.077142    -0.000633
    79       H      0.000178    -0.034547     0.046858
    80       C     -0.037984     0.030853    -0.021846
    81       H     -0.091216    -0.069865     0.087618
    82       H      0.121944     0.034072    -0.003752
    83       C     17.158066     5.326519    -4.261571
    84       H     -0.025739    -0.022921    -0.036550
    85       H     -0.071954    -0.039556     0.090634
    86       C      0.025327    -0.060447     0.001083
    87       H      0.057888     0.000385    -0.058019
    88       H     -0.069050     0.064581    -0.012569
    89       H      0.009878    -0.054420     0.067359
    90       H      0.109917    -0.039058    -0.077023
    91       C      0.004085    -0.007925     0.089157
    92       H      0.021228    -0.022833    -0.043679
    93       H      0.083851    -0.040575    -0.033647
    94       H     -0.000388     0.095859    -0.147464
    95       C     -0.034938     0.031338    -0.024246
    96       H      0.029313    -0.024161    -0.179484
    97       H      0.070882     0.101694     0.040036
    98       H      0.035929    -0.006969     0.012207
 


          GRADIENT NORM =  27.72668



 ** GRADIENT IS VERY LARGE, BUT SINCE "LET" IS USED, CALCULATION WILL CONTINUE


          TIME FOR SCF CALCULATION =    0.22

          TIME FOR DERIVATIVES     =    0.16

          MOLECULAR WEIGHT =  645.84



          ROTATIONAL CONSTANTS IN CM(-1)

          A =    0.00294084   B =    0.00172519   C =    0.00154600



           PRINCIPAL MOMENTS OF INERTIA IN UNITS OF 10**(-40)*GRAM-CM**2

          A =     9518.6476   B =    16225.9219   C =    18106.5956


          ORIENTATION OF MOLECULE IN FORCE CALCULATION

    NO.       ATOM         X         Y         Z

     1          H      -1.8589   -1.0363   -2.6282
     2          C      -0.7671   -1.0363   -2.6282
     3          C      -0.0754    0.1868   -2.6282
     4          C      -0.0755   -2.2365   -2.6340
     5          N      -0.8832    1.3535   -2.5205
     6          C       1.3247    0.2287   -2.7268
     7          C       1.3180   -2.2162   -2.6183
     8          H      -0.6120   -3.1826   -2.6329
     9          C      -0.9077    2.2348   -1.4068
    10          C      -1.9210    1.7141   -3.4380
    11          C       2.1873    1.4697   -2.9038
    12          C       1.9940   -1.0049   -2.6613
    13          H       1.8749   -3.1511   -2.5691
    14          C      -1.8671    3.3127   -1.7442
    15          O      -0.2290    2.1011   -0.4130
    16          C      -2.5104    3.0043   -2.8976
    17          O      -2.1901    1.0927   -4.4241
    18          C       2.7611    1.8609   -1.5326
    19          C       1.4464    2.6684   -3.5195
    20          C       3.3542    1.1468   -3.8683
    21          H       3.0847   -1.0229   -2.6424
    22          H      -1.9816    4.1684   -1.1093
    23          H      -3.1044    3.6352   -3.5410
    24          H       3.2238    1.0039   -1.0300
    25          H       3.5174    2.6454   -1.6286
    26          H       1.9830    2.2427   -0.8598
    27          H       0.7975    2.3531   -4.3439
    28          H       2.1519    3.4041   -3.9231
    29          H       0.8433    3.2082   -2.7847
    30          H       3.9086    2.0527   -4.1338
    31          H       2.9810    0.7008   -4.7966
    32          H       4.0788    0.4570   -3.4260
    33          C       2.7273   -4.6936   -0.3693
    34          C       2.6700   -3.5850    0.4755
    35          C       1.5550   -5.3102   -0.7985
    36          H       3.6929   -5.0784   -0.6900
    37          C       1.4351   -3.0877    0.8844
    38          H       3.5963   -3.1237    0.8165
    39          C       0.3184   -4.8185   -0.3804
    40          H       1.6023   -6.1749   -1.4558
    41          C       1.3020   -1.8945    1.8026
    42          C       0.2570   -3.7117    0.4597
    43          H      -0.5989   -5.3011   -0.7110
    44          N       2.5822   -1.3150    2.1889
    45          C       0.4395   -0.8467    1.0865
    46          H       0.7434   -2.2241    2.7388
    47          H      -0.7133   -3.3253    0.7792
    48          C       2.7519   -0.9526    3.5164
    49          H       3.1342   -0.8749    1.4606
    50          O       1.1626    0.0651    0.4534
    51          O      -0.7688   -0.8418    1.1033
    52          O       3.9046   -0.2514    3.6285
    53          O       2.0001   -1.2629    4.4154
    54          H       0.5994    0.8321    0.0251
    55          C       4.3231    0.2029    4.9397
    56          C       5.6335    0.9140    4.5847
    57          C       4.5545   -1.0007    5.8434
    58          C       3.2806    1.1692    5.4882
    59          H       5.4612    1.7277    3.8691
    60          H       6.1024    1.3378    5.4777
    61          H       6.3465    0.2228    4.1188
    62          H       5.1919   -1.7485    5.3572
    63          H       5.0308   -0.7102    6.7848
    64          H       3.6071   -1.5034    6.0954
    65          H       3.0236    1.9392    4.7505
    66          H       3.6381    1.6728    6.3916
    67          H       2.3467    0.6474    5.7494
    68          C      -3.0754    1.7596    2.5880
    69          N      -3.1157    0.4719    1.8672
    70          H      -4.0197    2.3201    2.3554
    71          C      -3.4602    0.3980    0.5408
    72          H      -2.4569   -0.2262    2.2180
    73          C      -3.2962   -0.9666   -0.0772
    74          C      -3.9660    1.4373   -0.1972
    75          C      -4.3960   -1.1917   -1.1152
    76          H      -2.2871   -1.0289   -0.5478
    77          H      -3.3066   -1.7711    0.6848
    78          C      -4.3435    1.2954   -1.5675
    79          H      -4.0812    2.4207    0.2432
    80          C      -4.3726   -0.0840   -2.1736
    81          H      -4.2791   -2.1819   -1.5922
    82          H      -5.3839   -1.2061   -0.6137
    83          C      -4.6331    2.3582   -2.3731
    84          H      -3.5059   -0.2224   -2.8540
    85          H      -5.2637   -0.1846   -2.8281
    86          C      -5.0292    3.6980   -1.8393
    87          H      -6.0202    3.6326   -1.3632
    88          H      -4.3390    4.0771   -1.0745
    89          H      -5.1031    4.4567   -2.6264
    90          H      -4.8921    2.1930   -3.4167
    91          C      -3.0232    1.4516    4.0933
    92          H      -3.8572    0.8072    4.3957
    93          H      -2.0920    0.9444    4.3730
    94          H      -3.0846    2.3746    4.6786
    95          C      -1.8580    2.5968    2.1735
    96          H      -1.9039    2.8688    1.1101
    97          H      -1.7891    3.5205    2.7533
    98          H      -0.9191    2.0442    2.3062


    FIRST DERIVATIVES WILL BE USED IN THE CALCULATION OF SECOND DERIVATIVES

          ESTIMATED TIME TO COMPLETE CALCULATION =      222.80 SECONDS

    FOR POINT-GROUP C1   THERE ARE   1 UNIQUE SYMMETRY FUNCTIONS.

 STEP:   1 TIME =     0.49 SECS, INTEGRAL =      0.49 TIME LEFT: 172799.13
 STEP:   2 TIME =     0.47 SECS, INTEGRAL =      0.96 TIME LEFT: 172798.66
 STEP:   3 TIME =     0.44 SECS, INTEGRAL =      1.40 TIME LEFT: 172798.22
 STEP:   4 TIME =     0.48 SECS, INTEGRAL =      1.88 TIME LEFT: 172797.74
 STEP:   5 TIME =     0.65 SECS, INTEGRAL =      2.53 TIME LEFT: 172797.09
 STEP:   6 TIME =     0.53 SECS, INTEGRAL =      3.05 TIME LEFT: 172796.57
 STEP:   7 TIME =     0.67 SECS, INTEGRAL =      3.72 TIME LEFT: 172795.90
 STEP:   8 TIME =     0.61 SECS, INTEGRAL =      4.34 TIME LEFT: 172795.29
 STEP:   9 TIME =     0.54 SECS, INTEGRAL =      4.87 TIME LEFT: 172794.75
 STEP:  10 TIME =     0.58 SECS, INTEGRAL =      5.45 TIME LEFT: 172794.17
 STEP:  11 TIME =     0.51 SECS, INTEGRAL =      5.96 TIME LEFT: 172793.66
 STEP:  12 TIME =     0.50 SECS, INTEGRAL =      6.46 TIME LEFT: 172793.16
 STEP:  13 TIME =     0.51 SECS, INTEGRAL =      6.97 TIME LEFT: 172792.65
 STEP:  14 TIME =     0.53 SECS, INTEGRAL =      7.50 TIME LEFT: 172792.12
 STEP:  15 TIME =     0.52 SECS, INTEGRAL =      8.02 TIME LEFT: 172791.60
 STEP:  16 TIME =     0.60 SECS, INTEGRAL =      8.62 TIME LEFT: 172791.00
 STEP:  17 TIME =     0.54 SECS, INTEGRAL =      9.16 TIME LEFT: 172790.46
 STEP:  18 TIME =     0.51 SECS, INTEGRAL =      9.66 TIME LEFT: 172789.96
 STEP:  19 TIME =     0.63 SECS, INTEGRAL =     10.29 TIME LEFT: 172789.33
 STEP:  20 TIME =     0.61 SECS, INTEGRAL =     10.91 TIME LEFT: 172788.71
 STEP:  21 TIME =     0.50 SECS, INTEGRAL =     11.40 TIME LEFT: 172788.22
 STEP:  22 TIME =     0.48 SECS, INTEGRAL =     11.89 TIME LEFT: 172787.73
 STEP:  23 TIME =     0.49 SECS, INTEGRAL =     12.38 TIME LEFT: 172787.24
 STEP:  24 TIME =     0.44 SECS, INTEGRAL =     12.82 TIME LEFT: 172786.80
 STEP:  25 TIME =     0.54 SECS, INTEGRAL =     13.36 TIME LEFT: 172786.26
 STEP:  26 TIME =     0.54 SECS, INTEGRAL =     13.90 TIME LEFT: 172785.72
 STEP:  27 TIME =     0.52 SECS, INTEGRAL =     14.43 TIME LEFT: 172785.20
 STEP:  28 TIME =     0.56 SECS, INTEGRAL =     14.98 TIME LEFT: 172784.64
 STEP:  29 TIME =     0.48 SECS, INTEGRAL =     15.46 TIME LEFT: 172784.16
 STEP:  30 TIME =     0.51 SECS, INTEGRAL =     15.98 TIME LEFT: 172783.64
 STEP:  31 TIME =     0.50 SECS, INTEGRAL =     16.48 TIME LEFT: 172783.14
 STEP:  32 TIME =     0.50 SECS, INTEGRAL =     16.98 TIME LEFT: 172782.64
 STEP:  33 TIME =     0.45 SECS, INTEGRAL =     17.43 TIME LEFT: 172782.20
 STEP:  34 TIME =     0.51 SECS, INTEGRAL =     17.94 TIME LEFT: 172781.68
 STEP:  35 TIME =     0.59 SECS, INTEGRAL =     18.53 TIME LEFT: 172781.09
 STEP:  36 TIME =     0.53 SECS, INTEGRAL =     19.05 TIME LEFT: 172780.57
 STEP:  37 TIME =     0.47 SECS, INTEGRAL =     19.53 TIME LEFT: 172780.09
 STEP:  38 TIME =     0.46 SECS, INTEGRAL =     19.99 TIME LEFT: 172779.63
 STEP:  39 TIME =     0.44 SECS, INTEGRAL =     20.43 TIME LEFT: 172779.19
 STEP:  40 TIME =     0.57 SECS, INTEGRAL =     21.00 TIME LEFT: 172778.62
 STEP:  41 TIME =     0.49 SECS, INTEGRAL =     21.49 TIME LEFT: 172778.13
 STEP:  42 TIME =     0.57 SECS, INTEGRAL =     22.07 TIME LEFT: 172777.55
 STEP:  43 TIME =     0.54 SECS, INTEGRAL =     22.60 TIME LEFT: 172777.02
 STEP:  44 TIME =     0.49 SECS, INTEGRAL =     23.09 TIME LEFT: 172776.53
 STEP:  45 TIME =     0.49 SECS, INTEGRAL =     23.58 TIME LEFT: 172776.04
 STEP:  46 TIME =     0.63 SECS, INTEGRAL =     24.21 TIME LEFT: 172775.41
 STEP:  47 TIME =     0.59 SECS, INTEGRAL =     24.80 TIME LEFT: 172774.82
 STEP:  48 TIME =     0.53 SECS, INTEGRAL =     25.33 TIME LEFT: 172774.29
 STEP:  49 TIME =     0.53 SECS, INTEGRAL =     25.86 TIME LEFT: 172773.76
 STEP:  50 TIME =     0.46 SECS, INTEGRAL =     26.32 TIME LEFT: 172773.30
 STEP:  51 TIME =     0.47 SECS, INTEGRAL =     26.79 TIME LEFT: 172772.83
 STEP:  52 TIME =     0.44 SECS, INTEGRAL =     27.23 TIME LEFT: 172772.39
 STEP:  53 TIME =     0.43 SECS, INTEGRAL =     27.66 TIME LEFT: 172771.96
 STEP:  54 TIME =     0.40 SECS, INTEGRAL =     28.06 TIME LEFT: 172771.56
 STEP:  55 TIME =     0.51 SECS, INTEGRAL =     28.57 TIME LEFT: 172771.05
 STEP:  56 TIME =     0.46 SECS, INTEGRAL =     29.03 TIME LEFT: 172770.59
 STEP:  57 TIME =     0.44 SECS, INTEGRAL =     29.47 TIME LEFT: 172770.15
 STEP:  58 TIME =     0.46 SECS, INTEGRAL =     29.93 TIME LEFT: 172769.69
 STEP:  59 TIME =     0.46 SECS, INTEGRAL =     30.39 TIME LEFT: 172769.23
 STEP:  60 TIME =     0.48 SECS, INTEGRAL =     30.87 TIME LEFT: 172768.75
 STEP:  61 TIME =     0.46 SECS, INTEGRAL =     31.34 TIME LEFT: 172768.29
 STEP:  62 TIME =     0.41 SECS, INTEGRAL =     31.75 TIME LEFT: 172767.88
 STEP:  63 TIME =     0.44 SECS, INTEGRAL =     32.18 TIME LEFT: 172767.44
 STEP:  64 TIME =     0.46 SECS, INTEGRAL =     32.65 TIME LEFT: 172766.97
 STEP:  65 TIME =     0.52 SECS, INTEGRAL =     33.16 TIME LEFT: 172766.46
 STEP:  66 TIME =     0.49 SECS, INTEGRAL =     33.65 TIME LEFT: 172765.97
 STEP:  67 TIME =     0.43 SECS, INTEGRAL =     34.08 TIME LEFT: 172765.54
 STEP:  68 TIME =     0.48 SECS, INTEGRAL =     34.56 TIME LEFT: 172765.06
 STEP:  69 TIME =     0.45 SECS, INTEGRAL =     35.00 TIME LEFT: 172764.62
 STEP:  70 TIME =     0.40 SECS, INTEGRAL =     35.41 TIME LEFT: 172764.21
 STEP:  71 TIME =     0.45 SECS, INTEGRAL =     35.85 TIME LEFT: 172763.77
 STEP:  72 TIME =     0.43 SECS, INTEGRAL =     36.28 TIME LEFT: 172763.34
 STEP:  73 TIME =     0.50 SECS, INTEGRAL =     36.79 TIME LEFT: 172762.84
 STEP:  74 TIME =     0.44 SECS, INTEGRAL =     37.23 TIME LEFT: 172762.39
 STEP:  75 TIME =     0.46 SECS, INTEGRAL =     37.69 TIME LEFT: 172761.93
 STEP:  76 TIME =     0.43 SECS, INTEGRAL =     38.12 TIME LEFT: 172761.50
 STEP:  77 TIME =     0.46 SECS, INTEGRAL =     38.59 TIME LEFT: 172761.03
 STEP:  78 TIME =     0.45 SECS, INTEGRAL =     39.04 TIME LEFT: 172760.58
 STEP:  79 TIME =     0.39 SECS, INTEGRAL =     39.43 TIME LEFT: 172760.19
 STEP:  80 TIME =     0.43 SECS, INTEGRAL =     39.86 TIME LEFT: 172759.77
 STEP:  81 TIME =     0.47 SECS, INTEGRAL =     40.32 TIME LEFT: 172759.30
 STEP:  82 TIME =     0.46 SECS, INTEGRAL =     40.79 TIME LEFT: 172758.83
 STEP:  83 TIME =     0.47 SECS, INTEGRAL =     41.26 TIME LEFT: 172758.36
 STEP:  84 TIME =     0.44 SECS, INTEGRAL =     41.70 TIME LEFT: 172757.92
 STEP:  85 TIME =     0.50 SECS, INTEGRAL =     42.20 TIME LEFT: 172757.43
 STEP:  86 TIME =     0.49 SECS, INTEGRAL =     42.68 TIME LEFT: 172756.94
 STEP:  87 TIME =     0.42 SECS, INTEGRAL =     43.11 TIME LEFT: 172756.52
 STEP:  88 TIME =     0.42 SECS, INTEGRAL =     43.53 TIME LEFT: 172756.09
 STEP:  89 TIME =     0.46 SECS, INTEGRAL =     43.98 TIME LEFT: 172755.64
 STEP:  90 TIME =     0.46 SECS, INTEGRAL =     44.45 TIME LEFT: 172755.17
 STEP:  91 TIME =     0.41 SECS, INTEGRAL =     44.86 TIME LEFT: 172754.76
 STEP:  92 TIME =     0.43 SECS, INTEGRAL =     45.29 TIME LEFT: 172754.33
 STEP:  93 TIME =     0.43 SECS, INTEGRAL =     45.72 TIME LEFT: 172753.90
 STEP:  94 TIME =     0.49 SECS, INTEGRAL =     46.21 TIME LEFT: 172753.41
 STEP:  95 TIME =     0.45 SECS, INTEGRAL =     46.66 TIME LEFT: 172752.96
 STEP:  96 TIME =     0.44 SECS, INTEGRAL =     47.10 TIME LEFT: 172752.52
 STEP:  97 TIME =     0.58 SECS, INTEGRAL =     47.68 TIME LEFT: 172751.94
 STEP:  98 TIME =     0.63 SECS, INTEGRAL =     48.31 TIME LEFT: 172751.31
 STEP:  99 TIME =     0.63 SECS, INTEGRAL =     48.94 TIME LEFT: 172750.68
 STEP: 100 TIME =     0.58 SECS, INTEGRAL =     49.52 TIME LEFT: 172750.11
 STEP: 101 TIME =     0.52 SECS, INTEGRAL =     50.04 TIME LEFT: 172749.58
 STEP: 102 TIME =     0.64 SECS, INTEGRAL =     50.68 TIME LEFT: 172748.94
 STEP: 103 TIME =     0.62 SECS, INTEGRAL =     51.31 TIME LEFT: 172748.31
 STEP: 104 TIME =     0.56 SECS, INTEGRAL =     51.87 TIME LEFT: 172747.75
 STEP: 105 TIME =     0.54 SECS, INTEGRAL =     52.40 TIME LEFT: 172747.22
 STEP: 106 TIME =     0.45 SECS, INTEGRAL =     52.86 TIME LEFT: 172746.77
 STEP: 107 TIME =     0.46 SECS, INTEGRAL =     53.31 TIME LEFT: 172746.31
 STEP: 108 TIME =     0.45 SECS, INTEGRAL =     53.77 TIME LEFT: 172745.86
 STEP: 109 TIME =     0.60 SECS, INTEGRAL =     54.37 TIME LEFT: 172745.25
 STEP: 110 TIME =     0.50 SECS, INTEGRAL =     54.87 TIME LEFT: 172744.75
 STEP: 111 TIME =     0.52 SECS, INTEGRAL =     55.39 TIME LEFT: 172744.23
 STEP: 112 TIME =     0.48 SECS, INTEGRAL =     55.87 TIME LEFT: 172743.75
 STEP: 113 TIME =     0.47 SECS, INTEGRAL =     56.34 TIME LEFT: 172743.28
 STEP: 114 TIME =     0.46 SECS, INTEGRAL =     56.80 TIME LEFT: 172742.82
 STEP: 115 TIME =     0.56 SECS, INTEGRAL =     57.36 TIME LEFT: 172742.26
 STEP: 116 TIME =     0.53 SECS, INTEGRAL =     57.89 TIME LEFT: 172741.73
 STEP: 117 TIME =     0.57 SECS, INTEGRAL =     58.47 TIME LEFT: 172741.15
 STEP: 118 TIME =     0.43 SECS, INTEGRAL =     58.90 TIME LEFT: 172740.72
 STEP: 119 TIME =     0.40 SECS, INTEGRAL =     59.30 TIME LEFT: 172740.32
 STEP: 120 TIME =     0.48 SECS, INTEGRAL =     59.78 TIME LEFT: 172739.84
 STEP: 121 TIME =     0.48 SECS, INTEGRAL =     60.27 TIME LEFT: 172739.36
 STEP: 122 TIME =     0.49 SECS, INTEGRAL =     60.75 TIME LEFT: 172738.87
 STEP: 123 TIME =     0.45 SECS, INTEGRAL =     61.21 TIME LEFT: 172738.41
 STEP: 124 TIME =     0.57 SECS, INTEGRAL =     61.78 TIME LEFT: 172737.84
 STEP: 125 TIME =     0.61 SECS, INTEGRAL =     62.38 TIME LEFT: 172737.24
 STEP: 126 TIME =     0.56 SECS, INTEGRAL =     62.95 TIME LEFT: 172736.68
 STEP: 127 TIME =     0.51 SECS, INTEGRAL =     63.46 TIME LEFT: 172736.16
 STEP: 128 TIME =     0.44 SECS, INTEGRAL =     63.90 TIME LEFT: 172735.72
 STEP: 129 TIME =     0.48 SECS, INTEGRAL =     64.38 TIME LEFT: 172735.24
 STEP: 130 TIME =     0.46 SECS, INTEGRAL =     64.85 TIME LEFT: 172734.77
 STEP: 131 TIME =     0.51 SECS, INTEGRAL =     65.36 TIME LEFT: 172734.27
 STEP: 132 TIME =     0.45 SECS, INTEGRAL =     65.81 TIME LEFT: 172733.81
 STEP: 133 TIME =     0.53 SECS, INTEGRAL =     66.34 TIME LEFT: 172733.28
 STEP: 134 TIME =     0.47 SECS, INTEGRAL =     66.81 TIME LEFT: 172732.81
 STEP: 135 TIME =     0.42 SECS, INTEGRAL =     67.23 TIME LEFT: 172732.39
 STEP: 136 TIME =     0.41 SECS, INTEGRAL =     67.64 TIME LEFT: 172731.98
 STEP: 137 TIME =     0.45 SECS, INTEGRAL =     68.09 TIME LEFT: 172731.53
 STEP: 138 TIME =     0.47 SECS, INTEGRAL =     68.56 TIME LEFT: 172731.06
 STEP: 139 TIME =     0.43 SECS, INTEGRAL =     68.99 TIME LEFT: 172730.63
 STEP: 140 TIME =     0.49 SECS, INTEGRAL =     69.48 TIME LEFT: 172730.14
 STEP: 141 TIME =     0.48 SECS, INTEGRAL =     69.96 TIME LEFT: 172729.66
 STEP: 142 TIME =     0.46 SECS, INTEGRAL =     70.42 TIME LEFT: 172729.20
 STEP: 143 TIME =     0.52 SECS, INTEGRAL =     70.93 TIME LEFT: 172728.69
 STEP: 144 TIME =     0.45 SECS, INTEGRAL =     71.39 TIME LEFT: 172728.23
 STEP: 145 TIME =     0.43 SECS, INTEGRAL =     71.81 TIME LEFT: 172727.81
 STEP: 146 TIME =     0.45 SECS, INTEGRAL =     72.26 TIME LEFT: 172727.36
 STEP: 147 TIME =     0.48 SECS, INTEGRAL =     72.75 TIME LEFT: 172726.88
 STEP: 148 TIME =     0.49 SECS, INTEGRAL =     73.23 TIME LEFT: 172726.39
 STEP: 149 TIME =     0.53 SECS, INTEGRAL =     73.77 TIME LEFT: 172725.86
 STEP: 150 TIME =     0.52 SECS, INTEGRAL =     74.29 TIME LEFT: 172725.34
 STEP: 151 TIME =     0.48 SECS, INTEGRAL =     74.76 TIME LEFT: 172724.86
 STEP: 152 TIME =     0.44 SECS, INTEGRAL =     75.20 TIME LEFT: 172724.42
 STEP: 153 TIME =     0.49 SECS, INTEGRAL =     75.69 TIME LEFT: 172723.93
 STEP: 154 TIME =     0.50 SECS, INTEGRAL =     76.18 TIME LEFT: 172723.44
 STEP: 155 TIME =     0.52 SECS, INTEGRAL =     76.71 TIME LEFT: 172722.91
 STEP: 156 TIME =     0.50 SECS, INTEGRAL =     77.20 TIME LEFT: 172722.42
 STEP: 157 TIME =     0.50 SECS, INTEGRAL =     77.70 TIME LEFT: 172721.92
 STEP: 158 TIME =     0.51 SECS, INTEGRAL =     78.21 TIME LEFT: 172721.41
 STEP: 159 TIME =     0.47 SECS, INTEGRAL =     78.68 TIME LEFT: 172720.94
 STEP: 160 TIME =     0.46 SECS, INTEGRAL =     79.14 TIME LEFT: 172720.48
 STEP: 161 TIME =     0.44 SECS, INTEGRAL =     79.58 TIME LEFT: 172720.04
 STEP: 162 TIME =     0.48 SECS, INTEGRAL =     80.05 TIME LEFT: 172719.57
 STEP: 163 TIME =     0.51 SECS, INTEGRAL =     80.56 TIME LEFT: 172719.06
 STEP: 164 TIME =     0.46 SECS, INTEGRAL =     81.02 TIME LEFT: 172718.60
 STEP: 165 TIME =     0.52 SECS, INTEGRAL =     81.54 TIME LEFT: 172718.08
 STEP: 166 TIME =     0.49 SECS, INTEGRAL =     82.03 TIME LEFT: 172717.59
 STEP: 167 TIME =     0.43 SECS, INTEGRAL =     82.46 TIME LEFT: 172717.16
 STEP: 168 TIME =     0.51 SECS, INTEGRAL =     82.97 TIME LEFT: 172716.65
 STEP: 169 TIME =     0.46 SECS, INTEGRAL =     83.44 TIME LEFT: 172716.18
 STEP: 170 TIME =     0.48 SECS, INTEGRAL =     83.91 TIME LEFT: 172715.71
 STEP: 171 TIME =     0.48 SECS, INTEGRAL =     84.39 TIME LEFT: 172715.23
 STEP: 172 TIME =     0.49 SECS, INTEGRAL =     84.88 TIME LEFT: 172714.74
 STEP: 173 TIME =     0.45 SECS, INTEGRAL =     85.33 TIME LEFT: 172714.29
 STEP: 174 TIME =     0.49 SECS, INTEGRAL =     85.82 TIME LEFT: 172713.80
 STEP: 175 TIME =     0.50 SECS, INTEGRAL =     86.32 TIME LEFT: 172713.30
 STEP: 176 TIME =     0.49 SECS, INTEGRAL =     86.81 TIME LEFT: 172712.81
 STEP: 177 TIME =     0.42 SECS, INTEGRAL =     87.23 TIME LEFT: 172712.39
 STEP: 178 TIME =     0.50 SECS, INTEGRAL =     87.73 TIME LEFT: 172711.89
 STEP: 179 TIME =     0.45 SECS, INTEGRAL =     88.17 TIME LEFT: 172711.45
 STEP: 180 TIME =     0.45 SECS, INTEGRAL =     88.62 TIME LEFT: 172711.00
 STEP: 181 TIME =     0.46 SECS, INTEGRAL =     89.08 TIME LEFT: 172710.54
 STEP: 182 TIME =     0.47 SECS, INTEGRAL =     89.55 TIME LEFT: 172710.07
 STEP: 183 TIME =     0.45 SECS, INTEGRAL =     90.00 TIME LEFT: 172709.62
 STEP: 184 TIME =     0.41 SECS, INTEGRAL =     90.41 TIME LEFT: 172709.21
 STEP: 185 TIME =     0.46 SECS, INTEGRAL =     90.87 TIME LEFT: 172708.75
 STEP: 186 TIME =     0.44 SECS, INTEGRAL =     91.31 TIME LEFT: 172708.31
 STEP: 187 TIME =     0.43 SECS, INTEGRAL =     91.73 TIME LEFT: 172707.89
 STEP: 188 TIME =     0.49 SECS, INTEGRAL =     92.23 TIME LEFT: 172707.39
 STEP: 189 TIME =     0.42 SECS, INTEGRAL =     92.65 TIME LEFT: 172706.97
 STEP: 190 TIME =     0.44 SECS, INTEGRAL =     93.09 TIME LEFT: 172706.54
 STEP: 191 TIME =     0.41 SECS, INTEGRAL =     93.49 TIME LEFT: 172706.13
 STEP: 192 TIME =     0.38 SECS, INTEGRAL =     93.87 TIME LEFT: 172705.75
 STEP: 193 TIME =     0.43 SECS, INTEGRAL =     94.30 TIME LEFT: 172705.32
 STEP: 194 TIME =     0.43 SECS, INTEGRAL =     94.73 TIME LEFT: 172704.89
 STEP: 195 TIME =     0.45 SECS, INTEGRAL =     95.18 TIME LEFT: 172704.44
 STEP: 196 TIME =     0.43 SECS, INTEGRAL =     95.61 TIME LEFT: 172704.01
 STEP: 197 TIME =     0.41 SECS, INTEGRAL =     96.02 TIME LEFT: 172703.61
 STEP: 198 TIME =     0.43 SECS, INTEGRAL =     96.45 TIME LEFT: 172703.17
 STEP: 199 TIME =     0.40 SECS, INTEGRAL =     96.85 TIME LEFT: 172702.77
 STEP: 200 TIME =     0.48 SECS, INTEGRAL =     97.33 TIME LEFT: 172702.29
 STEP: 201 TIME =     0.40 SECS, INTEGRAL =     97.73 TIME LEFT: 172701.89
 STEP: 202 TIME =     0.50 SECS, INTEGRAL =     98.23 TIME LEFT: 172701.39
 STEP: 203 TIME =     0.49 SECS, INTEGRAL =     98.72 TIME LEFT: 172700.90
 STEP: 204 TIME =     0.51 SECS, INTEGRAL =     99.23 TIME LEFT: 172700.39
 STEP: 205 TIME =     0.51 SECS, INTEGRAL =     99.74 TIME LEFT: 172699.88
 STEP: 206 TIME =     0.42 SECS, INTEGRAL =    100.16 TIME LEFT: 172699.46
 STEP: 207 TIME =     0.50 SECS, INTEGRAL =    100.65 TIME LEFT: 172698.97
 STEP: 208 TIME =     0.48 SECS, INTEGRAL =    101.13 TIME LEFT: 172698.49
 STEP: 209 TIME =     0.43 SECS, INTEGRAL =    101.56 TIME LEFT: 172698.06
 STEP: 210 TIME =     0.43 SECS, INTEGRAL =    101.99 TIME LEFT: 172697.63
 STEP: 211 TIME =     0.52 SECS, INTEGRAL =    102.51 TIME LEFT: 172697.11
 STEP: 212 TIME =     0.56 SECS, INTEGRAL =    103.07 TIME LEFT: 172696.55
 STEP: 213 TIME =     0.55 SECS, INTEGRAL =    103.62 TIME LEFT: 172696.00
 STEP: 214 TIME =     0.53 SECS, INTEGRAL =    104.16 TIME LEFT: 172695.46
 STEP: 215 TIME =     0.46 SECS, INTEGRAL =    104.62 TIME LEFT: 172695.00
 STEP: 216 TIME =     0.44 SECS, INTEGRAL =    105.06 TIME LEFT: 172694.56
 STEP: 217 TIME =     0.48 SECS, INTEGRAL =    105.54 TIME LEFT: 172694.09
 STEP: 218 TIME =     0.47 SECS, INTEGRAL =    106.01 TIME LEFT: 172693.61
 STEP: 219 TIME =     0.53 SECS, INTEGRAL =    106.54 TIME LEFT: 172693.09
 STEP: 220 TIME =     0.54 SECS, INTEGRAL =    107.07 TIME LEFT: 172692.55
 STEP: 221 TIME =     0.51 SECS, INTEGRAL =    107.58 TIME LEFT: 172692.04
 STEP: 222 TIME =     0.58 SECS, INTEGRAL =    108.16 TIME LEFT: 172691.46
 STEP: 223 TIME =     0.53 SECS, INTEGRAL =    108.70 TIME LEFT: 172690.93
 STEP: 224 TIME =     0.49 SECS, INTEGRAL =    109.18 TIME LEFT: 172690.44
 STEP: 225 TIME =     0.48 SECS, INTEGRAL =    109.66 TIME LEFT: 172689.96
 STEP: 226 TIME =     0.45 SECS, INTEGRAL =    110.11 TIME LEFT: 172689.51
 STEP: 227 TIME =     0.47 SECS, INTEGRAL =    110.58 TIME LEFT: 172689.04
 STEP: 228 TIME =     0.48 SECS, INTEGRAL =    111.06 TIME LEFT: 172688.56
 STEP: 229 TIME =     0.46 SECS, INTEGRAL =    111.52 TIME LEFT: 172688.10
 STEP: 230 TIME =     0.42 SECS, INTEGRAL =    111.95 TIME LEFT: 172687.68
 STEP: 231 TIME =     0.44 SECS, INTEGRAL =    112.39 TIME LEFT: 172687.23
 STEP: 232 TIME =     0.50 SECS, INTEGRAL =    112.88 TIME LEFT: 172686.74
 STEP: 233 TIME =     0.50 SECS, INTEGRAL =    113.38 TIME LEFT: 172686.24
 STEP: 234 TIME =     0.54 SECS, INTEGRAL =    113.92 TIME LEFT: 172685.70
 STEP: 235 TIME =     0.53 SECS, INTEGRAL =    114.45 TIME LEFT: 172685.17
 STEP: 236 TIME =     0.49 SECS, INTEGRAL =    114.94 TIME LEFT: 172684.68
 STEP: 237 TIME =     0.48 SECS, INTEGRAL =    115.42 TIME LEFT: 172684.20
 STEP: 238 TIME =     0.44 SECS, INTEGRAL =    115.86 TIME LEFT: 172683.77
 STEP: 239 TIME =     0.46 SECS, INTEGRAL =    116.32 TIME LEFT: 172683.30
 STEP: 240 TIME =     0.48 SECS, INTEGRAL =    116.80 TIME LEFT: 172682.82
 STEP: 241 TIME =     0.46 SECS, INTEGRAL =    117.26 TIME LEFT: 172682.36
 STEP: 242 TIME =     0.45 SECS, INTEGRAL =    117.71 TIME LEFT: 172681.91
 STEP: 243 TIME =     0.45 SECS, INTEGRAL =    118.15 TIME LEFT: 172681.47
 STEP: 244 TIME =     0.45 SECS, INTEGRAL =    118.60 TIME LEFT: 172681.02
 STEP: 245 TIME =     0.42 SECS, INTEGRAL =    119.02 TIME LEFT: 172680.60
 STEP: 246 TIME =     0.43 SECS, INTEGRAL =    119.45 TIME LEFT: 172680.17
 STEP: 247 TIME =     0.60 SECS, INTEGRAL =    120.05 TIME LEFT: 172679.57
 STEP: 248 TIME =     0.59 SECS, INTEGRAL =    120.65 TIME LEFT: 172678.97
 STEP: 249 TIME =     0.49 SECS, INTEGRAL =    121.14 TIME LEFT: 172678.48
 STEP: 250 TIME =     0.51 SECS, INTEGRAL =    121.65 TIME LEFT: 172677.97
 STEP: 251 TIME =     0.45 SECS, INTEGRAL =    122.10 TIME LEFT: 172677.52
 STEP: 252 TIME =     0.41 SECS, INTEGRAL =    122.50 TIME LEFT: 172677.12
 STEP: 253 TIME =     0.39 SECS, INTEGRAL =    122.89 TIME LEFT: 172676.73
 STEP: 254 TIME =     0.41 SECS, INTEGRAL =    123.30 TIME LEFT: 172676.32
 STEP: 255 TIME =     0.43 SECS, INTEGRAL =    123.73 TIME LEFT: 172675.89
 STEP: 256 TIME =     0.45 SECS, INTEGRAL =    124.18 TIME LEFT: 172675.45
 STEP: 257 TIME =     0.45 SECS, INTEGRAL =    124.62 TIME LEFT: 172675.00
 STEP: 258 TIME =     0.47 SECS, INTEGRAL =    125.09 TIME LEFT: 172674.53
 STEP: 259 TIME =     0.45 SECS, INTEGRAL =    125.55 TIME LEFT: 172674.07
 STEP: 260 TIME =     0.46 SECS, INTEGRAL =    126.00 TIME LEFT: 172673.62
 STEP: 261 TIME =     0.41 SECS, INTEGRAL =    126.41 TIME LEFT: 172673.21
 STEP: 262 TIME =     0.42 SECS, INTEGRAL =    126.83 TIME LEFT: 172672.79
 STEP: 263 TIME =     0.39 SECS, INTEGRAL =    127.21 TIME LEFT: 172672.41
 STEP: 264 TIME =     0.40 SECS, INTEGRAL =    127.62 TIME LEFT: 172672.00
 STEP: 265 TIME =     0.43 SECS, INTEGRAL =    128.05 TIME LEFT: 172671.57
 STEP: 266 TIME =     0.48 SECS, INTEGRAL =    128.52 TIME LEFT: 172671.10
 STEP: 267 TIME =     0.41 SECS, INTEGRAL =    128.93 TIME LEFT: 172670.69
 STEP: 268 TIME =     0.47 SECS, INTEGRAL =    129.41 TIME LEFT: 172670.21
 STEP: 269 TIME =     0.41 SECS, INTEGRAL =    129.81 TIME LEFT: 172669.81
 STEP: 270 TIME =     0.48 SECS, INTEGRAL =    130.29 TIME LEFT: 172669.33
 STEP: 271 TIME =     0.51 SECS, INTEGRAL =    130.80 TIME LEFT: 172668.82
 STEP: 272 TIME =     0.46 SECS, INTEGRAL =    131.26 TIME LEFT: 172668.36
 STEP: 273 TIME =     0.48 SECS, INTEGRAL =    131.74 TIME LEFT: 172667.88
 STEP: 274 TIME =     0.49 SECS, INTEGRAL =    132.23 TIME LEFT: 172667.39
 STEP: 275 TIME =     0.50 SECS, INTEGRAL =    132.73 TIME LEFT: 172666.89
 STEP: 276 TIME =     0.45 SECS, INTEGRAL =    133.18 TIME LEFT: 172666.44
 STEP: 277 TIME =     0.46 SECS, INTEGRAL =    133.65 TIME LEFT: 172665.97
 STEP: 278 TIME =     0.42 SECS, INTEGRAL =    134.07 TIME LEFT: 172665.55
 STEP: 279 TIME =     0.48 SECS, INTEGRAL =    134.55 TIME LEFT: 172665.07
 STEP: 280 TIME =     0.48 SECS, INTEGRAL =    135.03 TIME LEFT: 172664.59
 STEP: 281 TIME =     0.43 SECS, INTEGRAL =    135.46 TIME LEFT: 172664.16
 STEP: 282 TIME =     0.44 SECS, INTEGRAL =    135.90 TIME LEFT: 172663.72
 STEP: 283 TIME =     0.44 SECS, INTEGRAL =    136.34 TIME LEFT: 172663.29
 STEP: 284 TIME =     0.48 SECS, INTEGRAL =    136.81 TIME LEFT: 172662.81
 STEP: 285 TIME =     0.46 SECS, INTEGRAL =    137.27 TIME LEFT: 172662.35
 STEP: 286 TIME =     0.46 SECS, INTEGRAL =    137.73 TIME LEFT: 172661.89
 STEP: 287 TIME =     0.47 SECS, INTEGRAL =    138.21 TIME LEFT: 172661.41
 STEP: 288 TIME =     0.46 SECS, INTEGRAL =    138.66 TIME LEFT: 172660.96
 STEP: 289 TIME =     0.45 SECS, INTEGRAL =    139.12 TIME LEFT: 172660.50
 STEP: 290 TIME =     0.47 SECS, INTEGRAL =    139.59 TIME LEFT: 172660.04
 STEP: 291 TIME =     0.45 SECS, INTEGRAL =    140.04 TIME LEFT: 172659.58
 STEP: 292 TIME =     0.44 SECS, INTEGRAL =    140.48 TIME LEFT: 172659.14
 STEP: 293 TIME =     0.41 SECS, INTEGRAL =    140.89 TIME LEFT: 172658.73
 STEP: 294 TIME =     0.46 SECS, INTEGRAL =    141.35 TIME LEFT: 172658.27

(To convert to Hartree/Bohr^2, multiply by (10^(-21) x N x a0^2)/(4.184 x 627.51) =  0.0642)


           FORCE MATRIX IN MILLIDYNES/ANGSTROM


                  H  1       C  2       C  3       C  4       N  5       C  6
 ------------------------------------------------------------------------------
     H    1   4.291810
     C    2   3.384226  15.253722
     C    3   0.752837   5.394811  15.816763
     C    4   0.758540   6.420824   2.321556  15.442433
     N    5   0.067019   1.174095   4.836995   0.118007  15.428016
     C    6   0.082529   2.235799   5.494220   1.679322   0.923974  15.060899
     C    7   0.095859   2.439489   1.703481   6.051518   0.020782   2.289852
     H    8   0.035165   0.757452   0.097628   3.475319   0.015961   0.011002
     C    9   0.037941   0.089018   0.770924   0.029399   3.895192   0.074712
     C   10   0.066444   0.076955   0.737018   0.025371   3.524939   0.072711
     C   11   0.008253   0.083637   0.597863   0.012850   0.071259   3.017040
     C   12   0.021952   1.729980   2.329767   2.437600   0.125191   5.494382
     H   13   0.008526   0.088527   0.012983   0.748439   0.021785   0.093682
     C   14   0.023088   0.023187   0.107976   0.009899   1.379536   0.012018
     O   15   0.014321   0.026092   0.111099   0.013012   1.746199   0.025892
     C   16   0.023194   0.019234   0.123728   0.010107   1.187996   0.019519
     O   17   0.026690   0.025428   0.080151   0.012072   1.792753   0.018089
     C   18   0.004390   0.015971   0.035616   0.009390   0.059712   0.685680
     C   19   0.004647   0.005442   0.024200   0.005317   0.191381   0.573800
     C   20   0.004978   0.016412   0.042190   0.011875   0.035290   0.657472
     H   21   0.010930   0.023846   0.091843   0.094560   0.016692   0.738864
     H   22   0.001888   0.002318   0.013693   0.001625   0.060034   0.001561
     H   23   0.002054   0.002335   0.015139   0.001732   0.064769   0.003217
     H   24   0.001627   0.002699   0.006622   0.002368   0.011087   0.042916
     H   25   0.000563   0.002477   0.005448   0.000704   0.007772   0.045205
     H   26   0.001852   0.002889   0.011193   0.002346   0.035018   0.020441
     H   27   0.001664   0.002518   0.026089   0.002319   0.022036   0.023815
     H   28   0.000642   0.001356   0.002823   0.000801   0.008719   0.044328
     H   29   0.001545   0.002765   0.019255   0.001495   0.052970   0.008816
     H   30   0.000387   0.001936   0.005860   0.001339   0.006078   0.046255
     H   31   0.001711   0.002974   0.006787   0.001949   0.010455   0.032789
     H   32   0.001864   0.002554   0.005633   0.001530   0.007527   0.017172
     C   33   0.000792   0.001453   0.001441   0.002661   0.003428   0.001131
     C   34   0.000794   0.001507   0.002467   0.003229   0.004775   0.001415
     C   35   0.000855   0.000940   0.001394   0.003463   0.004415   0.000944
     H   36   0.000626   0.001025   0.001131   0.001486   0.002877   0.000761
     C   37   0.000885   0.002239   0.002304   0.002428   0.007026   0.000851
     H   38   0.000810   0.001506   0.001809   0.001893   0.003291   0.001174
     C   39   0.001663   0.002377   0.003534   0.014489   0.004110   0.001695
     H   40   0.000671   0.001225   0.001292   0.001641   0.003628   0.000718
     C   41   0.002323   0.002491   0.003784   0.002249   0.013703   0.000989
     C   42   0.002272   0.003946   0.004906   0.010547   0.006641   0.002035


                  H  1       C  2       C  3       C  4       N  5       C  6
 ------------------------------------------------------------------------------
     H   43   0.001659   0.001803   0.002370   0.002957   0.004041   0.000981
     N   44   0.003202   0.003618   0.009199   0.003865   0.076533   0.003276
     C   45   0.019165   0.023989   0.023997   0.013553   0.102544   0.014624
     H   46   0.000855   0.000965   0.001855   0.000949   0.003858   0.000855
     H   47   0.002788   0.002819   0.003517   0.003396   0.005691   0.001385
     C   48   0.005147   0.005085   0.009499   0.002764   0.028692   0.002821
     H   49   0.001653   0.002115   0.006704   0.002428   0.087133   0.002809
     O   50   0.011416   0.015345   0.036807   0.013642   0.129767   0.018605
     O   51   0.013614   0.018907   0.022595   0.009297   0.057371   0.008777
     O   52   0.002185   0.002382   0.003981   0.002066   0.014932   0.001134
     O   53   0.002473   0.002222   0.004481   0.001608   0.011733   0.001629
     H   54   0.008721   0.014724   0.067736   0.011459   0.185185   0.016675
     C   55   0.001804   0.002154   0.003463   0.001582   0.012614   0.001133
     C   56   0.000764   0.000998   0.001602   0.000847   0.005833   0.000701
     C   57   0.000711   0.000815   0.001419   0.000713   0.004772   0.000570
     C   58   0.000803   0.000941   0.001873   0.000845   0.006398   0.000750
     H   59   0.000192   0.000261   0.000384   0.000309   0.001511   0.000225
     H   60   0.000179   0.000230   0.000280   0.000158   0.001170   0.000133
     H   61   0.000181   0.000258   0.000496   0.000220   0.001368   0.000201
     H   62   0.000193   0.000203   0.000450   0.000183   0.001150   0.000173
     H   63   0.000166   0.000192   0.000287   0.000148   0.001191   0.000123
     H   64   0.000217   0.000240   0.000405   0.000225   0.001168   0.000131
     H   65   0.000220   0.000321   0.000733   0.000275   0.002714   0.000234
     H   66   0.000178   0.000208   0.000242   0.000146   0.001432   0.000166
     H   67   0.000276   0.000297   0.000593   0.000262   0.001779   0.000177
     C   68   0.002288   0.003088   0.008134   0.001665   0.025377   0.002395
     N   69   0.007731   0.010634   0.036030   0.005457   0.077886   0.010245
     H   70   0.000455   0.000567   0.001072   0.000319   0.003474   0.000401
     C   71   0.016765   0.019849   0.052637   0.007843   0.114938   0.014426
     H   72   0.002686   0.003284   0.009326   0.001843   0.022474   0.002464
     C   73   0.010871   0.038944   0.015552   0.005456   0.038482   0.003175
     C   74   0.014099   0.015177   0.050335   0.006260   0.121005   0.013076
     C   75   0.004963   0.005606   0.006324   0.001887   0.012682   0.001192
     H   76   0.027153   0.024844   0.015398   0.003350   0.030697   0.002276
     H   77   0.003245   0.003119   0.003570   0.001762   0.006899   0.001015
     C   78   0.025898   0.019287   0.049745   0.006320   0.137450   0.011940
     H   79   0.000795   0.001357   0.003658   0.000768   0.010015   0.001041
     C   80   0.027871   0.025095   0.011605   0.003545   0.058151   0.001871
     H   81   0.008155   0.003500   0.003508   0.001490   0.006357   0.000520
     H   82   0.001372   0.001384   0.001845   0.000545   0.003603   0.000741
     C   83   0.028278   0.019141   0.054285   0.007430   0.197842   0.011978
     H   84   0.041289   0.035111   0.009746   0.003328   0.039766   0.001867
     H   85   0.003373   0.002315   0.002259   0.000963   0.011370   0.000966
     C   86   0.003667   0.003276   0.005702   0.001044   0.019759   0.001460
     H   87   0.000250   0.000378   0.001567   0.000462   0.004358   0.000541
     H   88   0.000852   0.000823   0.001913   0.000518   0.007791   0.000619
     H   89   0.000738   0.000759   0.001946   0.000302   0.006550   0.000493


                  H  1       C  2       C  3       C  4       N  5       C  6
 ------------------------------------------------------------------------------
     H   90   0.002634   0.002107   0.006426   0.000779   0.023043   0.001669
     C   91   0.001933   0.001961   0.005347   0.000990   0.015106   0.001380
     H   92   0.000444   0.000357   0.001246   0.000428   0.003153   0.000332
     H   93   0.000614   0.000643   0.001536   0.000268   0.004024   0.000433
     H   94   0.000365   0.000386   0.000856   0.000163   0.003123   0.000257
     C   95   0.002647   0.003596   0.010929   0.002093   0.046279   0.002600
     H   96   0.000952   0.001397   0.005319   0.001014   0.025075   0.001245
     H   97   0.000254   0.000421   0.001422   0.000362   0.006579   0.000440
     H   98   0.001100   0.001596   0.004412   0.000587   0.018531   0.000959


                  C  7       H  8       C  9       C 10       C 11       C 12
 ------------------------------------------------------------------------------
     C    7  15.371753
     H    8   0.745005   4.390339
     C    9   0.029988   0.012247  18.403102
     C   10   0.025534   0.011037   2.046249  18.447734
     C   11   0.085984   0.012889   0.080586   0.044514  12.789859
     C   12   6.256043   0.087941   0.038564   0.027720   0.757836  15.075586
     H   13   3.457842   0.030921   0.018849   0.012720   0.008748   0.754267
     C   14   0.006153   0.006581   3.323485   1.230249   0.020625   0.006836
     O   15   0.012530   0.004743  11.184048   0.311814   0.039011   0.019323
     C   16   0.004996   0.006642   1.771043   2.726379   0.018374   0.010050
     O   17   0.009028   0.005517   0.349665  12.435395   0.015969   0.008173
     C   18   0.012181   0.005049   0.102912   0.038006   2.813690   0.051275
     C   19   0.012411   0.003593   0.090373   0.070906   2.836510   0.043315
     C   20   0.006855   0.004353   0.044079   0.029926   2.614160   0.124037
     H   21   0.786139   0.008435   0.013145   0.007044   0.054199   3.421178
     H   22   0.000912   0.000544   0.619608   0.135108   0.003769   0.001683
     H   23   0.000966   0.000724   0.160143   0.573249   0.002760   0.001401
     H   24   0.002428   0.001612   0.019613   0.009090   0.669122   0.010497
     H   25   0.002538   0.000503   0.014228   0.004890   0.688474   0.002379
     H   26   0.001304   0.001387   0.089989   0.017768   0.665798   0.004788
     H   27   0.001834   0.001308   0.035764   0.043515   0.675996   0.006255
     H   28   0.001500   0.000601   0.012873   0.009447   0.682368   0.005786
     H   29   0.001288   0.001000   0.118923   0.031224   0.661712   0.004278
     H   30   0.002284   0.000376   0.006870   0.004473   0.667995   0.003046
     H   31   0.001863   0.001688   0.010951   0.010551   0.666752   0.010040
     H   32   0.001804   0.001489   0.008260   0.005548   0.648211   0.060176
     C   33   0.012835   0.001638   0.003904   0.003060   0.001245   0.003287
     C   34   0.005777   0.002261   0.008646   0.002800   0.001855   0.003611
     C   35   0.014135   0.002819   0.006546   0.004418   0.001035   0.001539
     H   36   0.001961   0.001482   0.003147   0.003122   0.001240   0.001683
     C   37   0.003025   0.002965   0.015765   0.003687   0.001390   0.002454
     H   38   0.001515   0.002015   0.003785   0.002544   0.002035   0.002451
     C   39   0.008798   0.009063   0.004664   0.003819   0.001244   0.001332
     H   40   0.002166   0.002609   0.004582   0.004165   0.001129   0.001207
     C   41   0.002664   0.001999   0.035035   0.016874   0.004727   0.003434
     C   42   0.007050   0.002575   0.009246   0.004377   0.001632   0.002332
     H   43   0.001702   0.006745   0.005609   0.004348   0.001195   0.001486
     N   44   0.004808   0.004232   0.039868   0.030924   0.007888   0.006414
     C   45   0.014865   0.014533   0.283101   0.085712   0.023355   0.019001
     H   46   0.000908   0.000719   0.008721   0.005018   0.000595   0.000780
     H   47   0.002551   0.003455   0.007712   0.004035   0.001197   0.001406
     C   48   0.005296   0.004245   0.037919   0.035211   0.010693   0.008788
     H   49   0.002557   0.002075   0.024992   0.024438   0.004637   0.004659
     O   50   0.015011   0.012399   0.392447   0.092251   0.022882   0.016933
     O   51   0.006926   0.006880   0.124891   0.043188   0.012247   0.009630
     O   52   0.002289   0.002183   0.019388   0.018042   0.005790   0.004150


                  C  7       H  8       C  9       C 10       C 11       C 12
 ------------------------------------------------------------------------------
     O   53   0.002038   0.001770   0.017040   0.013330   0.003993   0.003083
     H   54   0.011316   0.006643   0.727895   0.106608   0.019634   0.010990
     C   55   0.001886   0.001607   0.016819   0.014487   0.004197   0.002066
     C   56   0.000923   0.000786   0.008868   0.006073   0.002378   0.001076
     C   57   0.000791   0.000700   0.007411   0.005230   0.001593   0.000864
     C   58   0.000870   0.000772   0.011357   0.006194   0.002269   0.000926
     H   59   0.000310   0.000247   0.002991   0.001351   0.000885   0.000358
     H   60   0.000182   0.000138   0.001980   0.001388   0.000456   0.000214
     H   61   0.000215   0.000154   0.002334   0.001183   0.000477   0.000296
     H   62   0.000254   0.000161   0.002066   0.001001   0.000330   0.000187
     H   63   0.000185   0.000150   0.001861   0.001362   0.000401   0.000174
     H   64   0.000215   0.000223   0.001838   0.001245   0.000454   0.000283
     H   65   0.000343   0.000256   0.005744   0.002031   0.000727   0.000274
     H   66   0.000186   0.000152   0.002737   0.001572   0.000472   0.000195
     H   67   0.000263   0.000236   0.003044   0.001711   0.000610   0.000308
     C   68   0.001765   0.001263   0.075389   0.019750   0.003118   0.001819
     N   69   0.006245   0.004314   0.253172   0.077490   0.007604   0.003676
     H   70   0.000299   0.000220   0.006163   0.003572   0.000543   0.000284
     C   71   0.008352   0.006277   0.406492   0.124881   0.012101   0.004680
     H   72   0.001806   0.001591   0.041193   0.019575   0.002075   0.001001
     C   73   0.002579   0.004757   0.057884   0.034508   0.004085   0.002935
     C   74   0.007548   0.006158   0.437208   0.143059   0.012176   0.003272
     C   75   0.001452   0.003085   0.019851   0.010906   0.001757   0.000703
     H   76   0.002439   0.004504   0.043808   0.027224   0.002756   0.002323
     H   77   0.001070   0.001954   0.013740   0.005839   0.001124   0.000685
     C   78   0.006826   0.006380   0.506233   0.178264   0.014121   0.003517
     H   79   0.000493   0.000349   0.026169   0.010194   0.001110   0.000695
     C   80   0.001744   0.002912   0.062016   0.076277   0.002916   0.002102
     H   81   0.000867   0.002669   0.007837   0.005441   0.001305   0.000838
     H   82   0.000562   0.000723   0.007375   0.003654   0.000858   0.000590
     C   83   0.007048   0.007055   0.642148   0.185742   0.016018   0.003060
     H   84   0.001243   0.002297   0.041976   0.106786   0.001565   0.001324
     H   85   0.000614   0.000755   0.011520   0.021290   0.000926   0.000763
     C   86   0.001014   0.000697   0.049155   0.020621   0.001909   0.001440
     H   87   0.000461   0.000352   0.012270   0.004120   0.000640   0.000370
     H   88   0.000425   0.000334   0.011591   0.006713   0.000646   0.000450
     H   89   0.000397   0.000252   0.006608   0.007156   0.000747   0.000393
     H   90   0.000877   0.000760   0.042203   0.046352   0.001315   0.000450
     C   91   0.001180   0.000913   0.034920   0.010768   0.002026   0.001208
     H   92   0.000327   0.000292   0.007430   0.003140   0.000367   0.000299
     H   93   0.000414   0.000254   0.008653   0.003213   0.000648   0.000351
     H   94   0.000217   0.000184   0.005996   0.002558   0.000493   0.000401
     C   95   0.002415   0.001467   0.111374   0.029077   0.003743   0.001987
     H   96   0.001117   0.000604   0.087304   0.015010   0.001465   0.000594
     H   97   0.000383   0.000329   0.015065   0.003855   0.000834   0.000440
     H   98   0.000648   0.000487   0.042846   0.011083   0.001306   0.000639


                  H 13       C 14       O 15       C 16       O 17       C 18
 ------------------------------------------------------------------------------
     H   13   4.369256
     C   14   0.006275  15.455988
     O   15   0.008778   1.272952  13.269402
     C   16   0.005300   8.571571   0.247073  14.874785
     O   17   0.004275   0.149375   0.113023   1.013925  14.436422
     C   18   0.003747   0.029822   0.096142   0.024383   0.015307  11.199728
     C   19   0.003533   0.044901   0.048816   0.034390   0.030060   0.698446
     C   20   0.005512   0.015024   0.023264   0.013290   0.012205   0.704546
     H   21   0.036666   0.002406   0.008371   0.002006   0.003251   0.013991
     H   22   0.001084   3.579478   0.038694   0.721293   0.019018   0.004638
     H   23   0.001094   0.671882   0.035059   3.503199   0.035862   0.003357
     H   24   0.001823   0.005580   0.017326   0.004478   0.003551   3.430240
     H   25   0.000358   0.006188   0.009002   0.004778   0.002080   3.444596
     H   26   0.001192   0.017310   0.045694   0.013543   0.008214   3.397047
     H   27   0.001355   0.011582   0.013433   0.009870   0.017132   0.044755
     H   28   0.000548   0.007007   0.006674   0.005380   0.003929   0.011638
     H   29   0.001054   0.019828   0.023857   0.020478   0.009024   0.021866
     H   30   0.000593   0.003083   0.003967   0.002548   0.001839   0.011107
     H   31   0.001934   0.003058   0.005325   0.002262   0.005771   0.046266
     H   32   0.002302   0.002454   0.005009   0.002474   0.002056   0.014382
     C   33   0.008180   0.001191   0.002577   0.001634   0.001326   0.002004
     C   34   0.002950   0.001642   0.007704   0.001221   0.001712   0.003349
     C   35   0.008288   0.001564   0.005782   0.001279   0.002150   0.002064
     H   36   0.004348   0.000940   0.003100   0.001106   0.001479   0.001972
     C   37   0.003528   0.003161   0.016273   0.001252   0.002369   0.003530
     H   38   0.003066   0.001400   0.003194   0.001456   0.000984   0.003733
     C   39   0.002356   0.002285   0.003994   0.002217   0.001610   0.001892
     H   40   0.004458   0.001050   0.004625   0.000980   0.002162   0.001834
     C   41   0.002378   0.017303   0.055222   0.012281   0.006203   0.012876
     C   42   0.003421   0.003036   0.006308   0.003929   0.001911   0.002157
     H   43   0.002943   0.002384   0.004822   0.002099   0.002067   0.001797
     N   44   0.006186   0.013140   0.053931   0.007811   0.008999   0.019735
     C   45   0.016667   0.137287   0.392375   0.120912   0.031729   0.070315
     H   46   0.000844   0.005953   0.010498   0.004624   0.001822   0.001685
     H   47   0.003525   0.005155   0.005812   0.006222   0.001797   0.002267
     C   48   0.006247   0.016932   0.062767   0.012453   0.013528   0.026350
     H   49   0.002905   0.007546   0.029221   0.006296   0.003267   0.015888
     O   50   0.015554   0.146551   0.792744   0.111089   0.036873   0.077732
     O   51   0.007138   0.071206   0.144811   0.073292   0.016561   0.035119
     O   52   0.003187   0.005547   0.030681   0.004806   0.007585   0.013293
     O   53   0.002426   0.009133   0.023000   0.008260   0.005112   0.010376
     H   54   0.010548   0.195321   0.596989   0.126263   0.047293   0.042967
     C   55   0.002332   0.004755   0.023708   0.003033   0.006004   0.009835
     C   56   0.001085   0.002669   0.009962   0.002131   0.002705   0.005050
     C   57   0.000946   0.002221   0.008718   0.001620   0.002523   0.003429
     C   58   0.001018   0.003731   0.011808   0.003182   0.003067   0.004403


                  H 13       C 14       O 15       C 16       O 17       C 18
 ------------------------------------------------------------------------------
     H   59   0.000298   0.001327   0.002719   0.001334   0.000682   0.002786
     H   60   0.000197   0.000615   0.002208   0.000382   0.000653   0.001000
     H   61   0.000242   0.000420   0.002060   0.000276   0.000641   0.001360
     H   62   0.000274   0.000346   0.001967   0.000211   0.000540   0.000778
     H   63   0.000191   0.000547   0.002061   0.000337   0.000683   0.000787
     H   64   0.000274   0.000817   0.002125   0.000860   0.000585   0.001121
     H   65   0.000317   0.001870   0.004769   0.001590   0.001209   0.002147
     H   66   0.000184   0.000712   0.002800   0.000442   0.000764   0.001027
     H   67   0.000296   0.001281   0.003279   0.001462   0.000902   0.001392
     C   68   0.001447   0.066407   0.043624   0.075712   0.010370   0.004318
     N   69   0.005781   0.240865   0.154025   0.284639   0.038351   0.011591
     H   70   0.000225   0.004435   0.004246   0.004995   0.001797   0.000827
     C   71   0.007566   0.386156   0.244892   0.458827   0.056363   0.017604
     H   72   0.001861   0.033804   0.031438   0.042434   0.009689   0.004644
     C   73   0.002344   0.041274   0.033010   0.045694   0.010293   0.005121
     C   74   0.006102   0.446965   0.237713   0.551987   0.059594   0.017240
     C   75   0.000927   0.017387   0.007332   0.020505   0.006931   0.002171
     H   76   0.001497   0.027362   0.022588   0.029217   0.008204   0.004283
     H   77   0.000979   0.011861   0.010326   0.013809   0.001996   0.001781
     C   78   0.005203   0.588459   0.230309   0.887043   0.084268   0.018651
     H   79   0.000480   0.032757   0.009852   0.036180   0.004094   0.001279
     C   80   0.001238   0.044405   0.013516   0.068086   0.057318   0.003112
     H   81   0.000639   0.005483   0.003259   0.005950   0.003602   0.001178
     H   82   0.000477   0.007939   0.003407   0.010204   0.002362   0.001072
     C   83   0.005420   0.852108   0.238649   0.937621   0.102785   0.021921
     H   84   0.000907   0.023404   0.011694   0.033248   0.048760   0.001864
     H   85   0.000596   0.010532   0.003544   0.015313   0.012184   0.001359
     C   86   0.001122   0.071028   0.015668   0.234473   0.009199   0.002227
     H   87   0.000322   0.015033   0.005274   0.023296   0.002272   0.000862
     H   88   0.000363   0.029537   0.006535   0.040218   0.003802   0.000804
     H   89   0.000384   0.007432   0.004494   0.014591   0.004647   0.000862
     H   90   0.000642   0.044591   0.017933   0.165950   0.022567   0.002024
     C   91   0.001087   0.025869   0.021956   0.030440   0.005461   0.002960
     H   92   0.000280   0.006686   0.004179   0.007886   0.001849   0.000895
     H   93   0.000403   0.005715   0.007267   0.006685   0.001430   0.001115
     H   94   0.000201   0.003380   0.004216   0.004031   0.001472   0.000908
     C   95   0.002012   0.066017   0.090868   0.061348   0.013192   0.006351
     H   96   0.000916   0.034679   0.039813   0.033482   0.006159   0.002619
     H   97   0.000371   0.007354   0.010082   0.005355   0.002231   0.001562
     H   98   0.000651   0.014761   0.034745   0.013077   0.004627   0.003340


                  C 19       C 20       H 21       H 22       H 23       H 24
 ------------------------------------------------------------------------------
     C   19  11.282221
     C   20   0.771930  11.197151
     H   21   0.009832   0.077972   4.358586
     H   22   0.007241   0.002603   0.000809   4.407506
     H   23   0.005409   0.002566   0.000706   0.031009   4.297818
     H   24   0.045476   0.010266   0.012200   0.000882   0.000756   4.219796
     H   25   0.011391   0.015472   0.003216   0.001187   0.000690   0.464948
     H   26   0.014626   0.045332   0.003012   0.002248   0.001795   0.463785
     H   27   3.435638   0.012691   0.002196   0.001913   0.002400   0.007829
     H   28   3.422357   0.055087   0.001836   0.001491   0.001044   0.001799
     H   29   3.425177   0.042892   0.001614   0.004455   0.002736   0.003141
     H   30   0.042487   3.435056   0.002681   0.000536   0.000602   0.005079
     H   31   0.012225   3.440916   0.013808   0.000759   0.000547   0.002198
     H   32   0.044798   3.424610   0.039078   0.000625   0.000616   0.016577
     C   33   0.001195   0.001563   0.001966   0.000434   0.000524   0.000863
     C   34   0.001305   0.002298   0.002308   0.000339   0.000345   0.001890
     C   35   0.001146   0.001553   0.001122   0.000358   0.000521   0.000726
     H   36   0.001127   0.001504   0.001903   0.000323   0.000429   0.000716
     C   37   0.001364   0.001528   0.001101   0.000569   0.000654   0.001424
     H   38   0.001528   0.002453   0.002967   0.000392   0.000309   0.001820
     C   39   0.001123   0.001718   0.001328   0.000358   0.000389   0.000793
     H   40   0.001044   0.001436   0.000818   0.000238   0.000477   0.000611
     C   41   0.004757   0.004790   0.002967   0.001734   0.002089   0.005079
     C   42   0.001427   0.001679   0.001397   0.000539   0.000542   0.001066
     H   43   0.000996   0.001443   0.001122   0.000269   0.000352   0.000785
     N   44   0.007844   0.007596   0.005599   0.003454   0.003297   0.008645
     C   45   0.021119   0.019966   0.013071   0.008124   0.012268   0.034904
     H   46   0.001454   0.001515   0.000302   0.000602   0.000689   0.000834
     H   47   0.001363   0.001468   0.001277   0.000758   0.000703   0.000903
     C   48   0.009989   0.010495   0.006387   0.005619   0.004724   0.011577
     H   49   0.004337   0.005000   0.004819   0.000668   0.000855   0.009046
     O   50   0.022178   0.020058   0.009812   0.006989   0.011699   0.029208
     O   51   0.010058   0.009716   0.007159   0.006636   0.006527   0.017667
     O   52   0.005044   0.005622   0.003086   0.002790   0.002538   0.005354
     O   53   0.003570   0.003910   0.003026   0.001842   0.001781   0.005566
     H   54   0.021999   0.014496   0.007805   0.010856   0.014778   0.021883
     C   55   0.003629   0.004108   0.001927   0.002233   0.002061   0.004504
     C   56   0.002143   0.002430   0.001172   0.000949   0.000952   0.002413
     C   57   0.001535   0.001747   0.000910   0.000648   0.000785   0.001888
     C   58   0.001953   0.002053   0.000855   0.001159   0.000983   0.001990
     H   59   0.000878   0.001025   0.000359   0.000307   0.000261   0.001096
     H   60   0.000451   0.000539   0.000239   0.000136   0.000182   0.000357
     H   61   0.000507   0.000706   0.000384   0.000179   0.000174   0.000797
     H   62   0.000339   0.000429   0.000235   0.000148   0.000184   0.000422
     H   63   0.000359   0.000436   0.000207   0.000122   0.000189   0.000362
     H   64   0.000454   0.000538   0.000272   0.000220   0.000208   0.000463


                  C 19       C 20       H 21       H 22       H 23       H 24
 ------------------------------------------------------------------------------
     H   65   0.000851   0.000745   0.000231   0.000455   0.000320   0.000750
     H   66   0.000480   0.000506   0.000201   0.000214   0.000227   0.000371
     H   67   0.000582   0.000617   0.000272   0.000338   0.000288   0.000571
     C   68   0.003927   0.002606   0.001405   0.013162   0.006815   0.000923
     N   69   0.013947   0.007257   0.003305   0.033376   0.023954   0.004010
     H   70   0.000668   0.000498   0.000196   0.001624   0.001139   0.000229
     C   71   0.020874   0.010379   0.003977   0.047401   0.041359   0.005785
     H   72   0.003069   0.001842   0.001027   0.005075   0.003817   0.001813
     C   73   0.003954   0.003924   0.002517   0.003970   0.003803   0.001582
     C   74   0.021975   0.009600   0.002387   0.050453   0.055370   0.004913
     C   75   0.002441   0.001882   0.001083   0.001792   0.001358   0.000580
     H   76   0.003298   0.003473   0.001861   0.001883   0.002246   0.001515
     H   77   0.001555   0.001169   0.000625   0.001185   0.001182   0.000467
     C   78   0.026544   0.010582   0.001340   0.060100   0.083471   0.004425
     H   79   0.001305   0.000937   0.000502   0.010147   0.005640   0.000281
     C   80   0.003480   0.003013   0.002078   0.003841   0.007130   0.000804
     H   81   0.001271   0.000981   0.000597   0.000799   0.000513   0.000294
     H   82   0.001260   0.000833   0.000610   0.001128   0.000957   0.000294
     C   83   0.033191   0.011815   0.000760   0.079548   0.383065   0.004465
     H   84   0.002439   0.002124   0.001092   0.001663   0.003633   0.000570
     H   85   0.001509   0.000916   0.000669   0.001008   0.002217   0.000333
     C   86   0.002720   0.001693   0.001170   0.014754   0.048707   0.000507
     H   87   0.001167   0.000592   0.000356   0.003611   0.002660   0.000213
     H   88   0.000957   0.000559   0.000283   0.020903   0.012845   0.000188
     H   89   0.001020   0.000728   0.000268   0.004305   0.024602   0.000236
     H   90   0.003231   0.001136   0.000376   0.006127   0.039471   0.000471
     C   91   0.002501   0.001794   0.001102   0.005936   0.003593   0.000839
     H   92   0.000666   0.000430   0.000249   0.001042   0.000890   0.000207
     H   93   0.000793   0.000547   0.000292   0.001044   0.000660   0.000387
     H   94   0.000681   0.000469   0.000237   0.001393   0.000663   0.000238
     C   95   0.004489   0.003138   0.001783   0.017892   0.007321   0.001951
     H   96   0.002235   0.001569   0.000654   0.013585   0.003841   0.000703
     H   97   0.001103   0.000764   0.000429   0.004716   0.001232   0.000383
     H   98   0.001614   0.001218   0.000552   0.003588   0.001834   0.001137


                  H 25       H 26       H 27       H 28       H 29       H 30
 ------------------------------------------------------------------------------
     H   25   4.236962
     H   26   0.466280   4.203882
     H   27   0.002157   0.003201   4.220055
     H   28   0.011496   0.005770   0.465701   4.220267
     H   29   0.009200   0.024061   0.463930   0.472432   4.240859
     H   30   0.016541   0.002654   0.006685   0.035992   0.003529   4.221727
     H   31   0.002722   0.007874   0.012003   0.009177   0.001820   0.465624
     H   32   0.010529   0.003074   0.001596   0.003681   0.007616   0.469984
     C   33   0.000426   0.000696   0.000302   0.000300   0.000309   0.000402
     C   34   0.000661   0.001003   0.000371   0.000280   0.000313   0.000389
     C   35   0.000502   0.000683   0.000375   0.000314   0.000323   0.000372
     H   36   0.000451   0.000590   0.000261   0.000271   0.000267   0.000368
     C   37   0.000485   0.001390   0.000365   0.000346   0.000351   0.000339
     H   38   0.000701   0.001018   0.000412   0.000302   0.000318   0.000459
     C   39   0.000407   0.000543   0.000364   0.000304   0.000265   0.000346
     H   40   0.000393   0.000502   0.000283   0.000265   0.000234   0.000337
     C   41   0.001941   0.004872   0.001314   0.000893   0.001293   0.000945
     C   42   0.000308   0.000878   0.000389   0.000337   0.000439   0.000368
     H   43   0.000353   0.000494   0.000332   0.000204   0.000227   0.000298
     N   44   0.003730   0.008274   0.001813   0.002054   0.001569   0.002320
     C   45   0.006778   0.034479   0.004476   0.004036   0.007414   0.003871
     H   46   0.000289   0.000915   0.000342   0.000395   0.000346   0.000475
     H   47   0.000394   0.000873   0.000365   0.000296   0.000458   0.000362
     C   48   0.005486   0.009882   0.002174   0.002985   0.002299   0.003413
     H   49   0.003081   0.006239   0.000780   0.000826   0.001070   0.001421
     O   50   0.007078   0.019165   0.005204   0.004082   0.008776   0.003768
     O   51   0.002991   0.015875   0.002380   0.001864   0.003889   0.001880
     O   52   0.003502   0.004631   0.001093   0.001509   0.001180   0.001747
     O   53   0.002321   0.003703   0.001002   0.001026   0.000998   0.001248
     H   54   0.006035   0.033912   0.006130   0.002722   0.010860   0.002222
     C   55   0.002607   0.003133   0.000761   0.001183   0.000858   0.001375
     C   56   0.001542   0.001632   0.000549   0.000641   0.000550   0.000727
     C   57   0.000888   0.001209   0.000401   0.000450   0.000392   0.000502
     C   58   0.001126   0.001967   0.000537   0.000548   0.000612   0.000569
     H   59   0.000842   0.000916   0.000231   0.000263   0.000250   0.000295
     H   60   0.000284   0.000276   0.000110   0.000124   0.000141   0.000150
     H   61   0.000329   0.000466   0.000149   0.000142   0.000143   0.000196
     H   62   0.000216   0.000276   0.000106   0.000110   0.000107   0.000137
     H   63   0.000206   0.000247   0.000084   0.000102   0.000101   0.000130
     H   64   0.000257   0.000333   0.000119   0.000134   0.000123   0.000146
     H   65   0.000600   0.000959   0.000220   0.000243   0.000291   0.000193
     H   66   0.000270   0.000322   0.000127   0.000129   0.000133   0.000144
     H   67   0.000335   0.000570   0.000158   0.000165   0.000194   0.000171
[...]
 REDUCED MASS        0.2758         C 91 -- H 93         +12.8% ( 36.4%)     99.6%
 EFFECTIVE MASS      1.4094
 FORCE CONSTANT      1.1770

 VIBRATION        262  262A           ATOM PAIR      ENERGY CONTRIBUTION    RADIAL
 FREQUENCY          2722.33         H  1 -- C  2         +60.1% ( 77.9%)    100.0%
 TRANSITION DIPOLE   0.7027         C 80 -- H 85         +25.1% ( 50.4%)     98.8%
 TRAVEL (Ang.)       0.2452         C 80 -- H 84          +7.7% ( 27.9%)     89.9%
 REDUCED MASS        0.4121         C 73 -- H 77          +2.3% ( 15.2%)     98.9%
 EFFECTIVE MASS      1.3370
 FORCE CONSTANT      1.7996

 VIBRATION        263  263A           ATOM PAIR      ENERGY CONTRIBUTION    RADIAL
 FREQUENCY          2732.97         C 73 -- H 77         +52.0% ( 71.1%)     98.3%
 TRANSITION DIPOLE   0.2778         C 73 -- H 76         +25.4% ( 49.7%)     93.5%
 TRAVEL (Ang.)       0.2691         C 80 -- H 85          +9.6% ( 30.5%)     98.0%
 REDUCED MASS        0.3407         C 80 -- H 84          +5.7% ( 23.6%)     95.2%
 EFFECTIVE MASS      1.2483
 FORCE CONSTANT      1.4994

 VIBRATION        264  264A           ATOM PAIR      ENERGY CONTRIBUTION    RADIAL
 FREQUENCY          2738.95         C 42 -- H 47         +31.2% ( 55.9%)    100.0%
 TRANSITION DIPOLE   0.1799         H  1 -- C  2         +15.2% ( 39.0%)    100.0%
 TRAVEL (Ang.)       0.3930         C 80 -- H 85         +14.4% ( 38.0%)     97.4%
 REDUCED MASS        0.1594         C 80 -- H 84         +11.8% ( 34.3%)     96.2%
 EFFECTIVE MASS      1.3262
 FORCE CONSTANT      0.7046

 VIBRATION        265  265A           ATOM PAIR      ENERGY CONTRIBUTION    RADIAL
 FREQUENCY          2739.91         C 42 -- H 47         +57.6% ( 76.4%)    100.0%
 TRANSITION DIPOLE   1.0404         H  1 -- C  2          +8.3% ( 29.0%)    100.0%
 TRAVEL (Ang.)       0.2685         C 12 -- H 21          +8.0% ( 28.5%)    100.0%
 REDUCED MASS        0.3414         C 80 -- H 85          +6.7% ( 26.1%)     97.2%
 EFFECTIVE MASS      1.3573
 FORCE CONSTANT      1.5099

 VIBRATION        266  266A           ATOM PAIR      ENERGY CONTRIBUTION    RADIAL
 FREQUENCY          2742.67         C 12 -- H 21         +57.0% ( 76.2%)    100.0%
 TRANSITION DIPOLE   0.3364         C  7 -- H 13         +12.8% ( 36.1%)     99.8%
 TRAVEL (Ang.)       0.2658         C 16 -- H 23         +11.4% ( 34.1%)    100.0%
 REDUCED MASS        0.3480         H  1 -- C  2          +6.2% ( 25.2%)    100.0%
 EFFECTIVE MASS      1.3674
 FORCE CONSTANT      1.5425

 VIBRATION        267  267A           ATOM PAIR      ENERGY CONTRIBUTION    RADIAL
 FREQUENCY          2743.30         C 16 -- H 23         +76.6% ( 89.1%)    100.0%
 TRANSITION DIPOLE   0.7016         C 12 -- H 21          +6.4% ( 25.9%)    100.0%
 TRAVEL (Ang.)       0.2033         C 83 -- H 90          +4.7% ( 22.0%)     99.9%
 REDUCED MASS        0.5946         C  7 -- H 13          +2.1% ( 14.9%)     99.8%
 EFFECTIVE MASS      1.4312
 FORCE CONSTANT      2.6366

 VIBRATION        268  268A           ATOM PAIR      ENERGY CONTRIBUTION    RADIAL
 FREQUENCY          2746.07         C 75 -- H 82         +47.7% ( 68.0%)     96.4%
 TRANSITION DIPOLE   0.4898         C 75 -- H 81         +46.6% ( 67.3%)     96.4%
 TRAVEL (Ang.)       0.2363         C 80 -- H 84          +1.1% ( 10.5%)     93.6%
 REDUCED MASS        0.4397         C 73 -- H 76          +1.0% (  9.6%)     93.5%
 EFFECTIVE MASS      1.2520
 FORCE CONSTANT      1.9537

 VIBRATION        269  269A           ATOM PAIR      ENERGY CONTRIBUTION    RADIAL
 FREQUENCY          2749.53         N 69 -- H 72         +64.2% ( 80.5%)     99.7%
 TRANSITION DIPOLE   1.7066         C 34 -- H 38         +16.5% ( 40.8%)    100.0%
 TRAVEL (Ang.)       0.2394         C 33 -- H 36          +3.5% ( 18.8%)     99.9%
 REDUCED MASS        0.4279         C 73 -- H 77          +2.8% ( 16.8%)     97.6%
 EFFECTIVE MASS      1.3630
 FORCE CONSTANT      1.9058

 VIBRATION        270  270A           ATOM PAIR      ENERGY CONTRIBUTION    RADIAL
 FREQUENCY          2749.87         C 34 -- H 38         +57.4% ( 76.4%)    100.0%
 TRANSITION DIPOLE   0.7790         N 69 -- H 72         +17.7% ( 42.5%)     99.7%
 TRAVEL (Ang.)       0.2579         C 33 -- H 36         +14.1% ( 37.9%)     99.9%
 REDUCED MASS        0.3686         C 35 -- H 40          +1.9% ( 14.1%)     99.7%
 EFFECTIVE MASS      1.3685
 FORCE CONSTANT      1.6423

 VIBRATION        271  271A           ATOM PAIR      ENERGY CONTRIBUTION    RADIAL
 FREQUENCY          2755.05         C 83 -- H 90         +33.0% ( 58.0%)     99.9%
 TRANSITION DIPOLE   0.9913         C  7 -- H 13         +32.4% ( 57.5%)     99.9%
 TRAVEL (Ang.)       0.3195         C  4 -- H  8         +15.4% ( 39.7%)    100.0%
 REDUCED MASS        0.2398         C 12 -- H 21          +8.6% ( 29.5%)     99.9%
 EFFECTIVE MASS      1.3697
 FORCE CONSTANT      1.0725

 VIBRATION        272  272A           ATOM PAIR      ENERGY CONTRIBUTION    RADIAL
 FREQUENCY          2755.57         C 83 -- H 90         +45.0% ( 67.7%)     99.9%
 TRANSITION DIPOLE   0.5998         C  7 -- H 13         +22.4% ( 47.7%)    100.0%
 TRAVEL (Ang.)       0.3067         C  4 -- H  8          +9.1% ( 30.5%)     99.9%
 REDUCED MASS        0.2602         C 12 -- H 21          +5.5% ( 23.7%)     99.9%
 EFFECTIVE MASS      1.3676
 FORCE CONSTANT      1.1642

 VIBRATION        273  273A           ATOM PAIR      ENERGY CONTRIBUTION    RADIAL
 FREQUENCY          2758.15         C 35 -- H 40         +52.4% ( 73.1%)    100.0%
 TRANSITION DIPOLE   0.5384         C 39 -- H 43         +21.1% ( 46.4%)     99.9%
 TRAVEL (Ang.)       0.2724         C 34 -- H 38         +13.1% ( 36.5%)    100.0%
 REDUCED MASS        0.3294         C 33 -- H 36          +5.7% ( 24.1%)     99.2%
 EFFECTIVE MASS      1.3660
 FORCE CONSTANT      1.4763

 VIBRATION        274  274A           ATOM PAIR      ENERGY CONTRIBUTION    RADIAL
 FREQUENCY          2762.73         C 33 -- H 36         +44.5% ( 67.3%)    100.0%
 TRANSITION DIPOLE   1.1119         C 39 -- H 43         +42.9% ( 66.1%)    100.0%
 TRAVEL (Ang.)       0.2556         C 34 -- H 38          +4.7% ( 21.8%)     99.7%
 REDUCED MASS        0.3737         C 35 -- H 40          +1.9% ( 14.0%)     97.5%
 EFFECTIVE MASS      1.3756
 FORCE CONSTANT      1.6804

 VIBRATION        275  275A           ATOM PAIR      ENERGY CONTRIBUTION    RADIAL
 FREQUENCY          2767.93         C  4 -- H  8         +64.1% ( 80.8%)    100.0%
 TRANSITION DIPOLE   0.7539         C  7 -- H 13         +20.7% ( 46.0%)    100.0%
 TRAVEL (Ang.)       0.2334         N 44 -- H 49          +6.0% ( 24.8%)     99.8%
 REDUCED MASS        0.4472         C 12 -- H 21          +2.9% ( 17.1%)    100.0%
 EFFECTIVE MASS      1.4265
 FORCE CONSTANT      2.0187

 VIBRATION        276  276A           ATOM PAIR      ENERGY CONTRIBUTION    RADIAL
 FREQUENCY          2770.34         N 44 -- H 49         +86.0% ( 93.3%)     99.9%
 TRANSITION DIPOLE   1.1828         C  4 -- H  8          +4.9% ( 22.3%)    100.0%
 TRAVEL (Ang.)       0.1839         C 39 -- H 43          +1.9% ( 14.0%)    100.0%
 REDUCED MASS        0.7201         C 35 -- H 40          +1.8% ( 13.6%)    100.0%
 EFFECTIVE MASS      1.3758
 FORCE CONSTANT      3.2560

 VIBRATION        277  277A           ATOM PAIR      ENERGY CONTRIBUTION    RADIAL
 FREQUENCY          2771.00         C 74 -- H 79         +93.9% ( 97.7%)    100.0%
 TRANSITION DIPOLE   0.3836         C 14 -- H 22          +2.6% ( 16.4%)    100.0%
 TRAVEL (Ang.)       0.1688         C 74 -- C 78          +0.9% (  9.6%)     10.7%
 REDUCED MASS        0.8538         C 71 -- C 74          +0.9% (  9.4%)     25.8%
 EFFECTIVE MASS      1.3640
 FORCE CONSTANT      3.8627

 VIBRATION        278  278A           ATOM PAIR      ENERGY CONTRIBUTION    RADIAL
 FREQUENCY          2773.30         C 35 -- H 40         +37.8% ( 62.0%)    100.0%
 TRANSITION DIPOLE   0.8696         C 33 -- H 36         +28.2% ( 53.6%)    100.0%
 TRAVEL (Ang.)       0.3055         C 39 -- H 43         +19.8% ( 44.8%)    100.0%
 REDUCED MASS        0.2605         C 34 -- H 38          +5.5% ( 23.6%)     99.9%
 EFFECTIVE MASS      1.4501
 FORCE CONSTANT      1.1804

 VIBRATION        279  279A           ATOM PAIR      ENERGY CONTRIBUTION    RADIAL
 FREQUENCY          2778.16         C 86 -- H 89         +33.2% ( 55.6%)     95.9%
 TRANSITION DIPOLE   0.2105         C 86 -- H 88         +30.2% ( 52.9%)     95.4%
 TRAVEL (Ang.)       0.2909         C 86 -- H 87         +28.9% ( 51.8%)     95.0%
 REDUCED MASS        0.2868         C 83 -- H 90          +5.4% ( 22.5%)     98.3%
 EFFECTIVE MASS      1.1632
 FORCE CONSTANT      1.3041

 VIBRATION        280  280A           ATOM PAIR      ENERGY CONTRIBUTION    RADIAL
 FREQUENCY          2779.19         C 58 -- H 66         +27.2% ( 50.1%)     96.5%
 TRANSITION DIPOLE   0.5180         C 58 -- H 65         +24.9% ( 47.9%)     95.8%
 TRAVEL (Ang.)       0.3582         C 58 -- H 67         +18.0% ( 40.8%)     93.9%
 REDUCED MASS        0.1891         C 57 -- H 62         +10.1% ( 30.5%)     96.1%
 EFFECTIVE MASS      1.1344         C 57 -- H 63         +10.0% ( 30.4%)     96.5%
 FORCE CONSTANT      0.8606

 VIBRATION        281  281A           ATOM PAIR      ENERGY CONTRIBUTION    RADIAL
 FREQUENCY          2779.46         C 20 -- H 30         +32.2% ( 54.5%)     96.2%
 TRANSITION DIPOLE   0.4565         C 20 -- H 31         +31.1% ( 53.5%)     95.7%
 TRAVEL (Ang.)       0.2937         C 20 -- H 32         +29.1% ( 51.8%)     95.6%
 REDUCED MASS        0.2813         C 18 -- H 26          +1.2% ( 10.5%)     96.1%
 EFFECTIVE MASS      1.1305
 FORCE CONSTANT      1.2802

 VIBRATION        282  282A           ATOM PAIR      ENERGY CONTRIBUTION    RADIAL
 FREQUENCY          2780.56         C 57 -- H 63         +19.0% ( 41.8%)     96.4%
 TRANSITION DIPOLE   0.4822         C 57 -- H 62         +17.3% ( 39.9%)     95.9%
 TRAVEL (Ang.)       0.4376         C 57 -- H 64         +13.1% ( 34.7%)     93.8%
 REDUCED MASS        0.1267         C 56 -- H 59         +11.9% ( 33.1%)     95.7%
 EFFECTIVE MASS      1.1342         C 56 -- H 61         +11.8% ( 32.9%)     95.9%
 FORCE CONSTANT      0.5770         C 56 -- H 60         +11.5% ( 32.5%)     95.8%

 VIBRATION        283  283A           ATOM PAIR      ENERGY CONTRIBUTION    RADIAL
 FREQUENCY          2781.04         C 91 -- H 94         +25.9% ( 48.9%)     96.1%
 TRANSITION DIPOLE   0.5927         C 91 -- H 92         +24.4% ( 47.4%)     95.6%
 TRAVEL (Ang.)       0.3548         C 91 -- H 93         +22.4% ( 45.5%)     95.3%
 REDUCED MASS        0.1926         C 95 -- H 97          +8.7% ( 28.4%)     96.5%
 EFFECTIVE MASS      1.1312
 FORCE CONSTANT      0.8775

 VIBRATION        284  284A           ATOM PAIR      ENERGY CONTRIBUTION    RADIAL
 FREQUENCY          2781.95         C 18 -- H 25         +18.1% ( 40.9%)     96.3%
 TRANSITION DIPOLE   0.3370         C 19 -- H 29         +17.2% ( 39.7%)     96.6%
 TRAVEL (Ang.)       0.3881         C 18 -- H 24         +16.9% ( 39.5%)     95.7%
 REDUCED MASS        0.1609         C 19 -- H 28         +16.4% ( 38.9%)     96.1%
 EFFECTIVE MASS      1.1317         C 18 -- H 26         +15.1% ( 37.4%)     95.6%
 FORCE CONSTANT      0.7339         C 19 -- H 27         +15.0% ( 37.2%)     95.1%

 VIBRATION        285  285A           ATOM PAIR      ENERGY CONTRIBUTION    RADIAL
 FREQUENCY          2783.56         C 14 -- H 22         +17.0% ( 39.9%)    100.0%
 TRANSITION DIPOLE   0.2200         C 19 -- H 29         +13.4% ( 35.4%)     96.4%
 TRAVEL (Ang.)       0.4615         C 18 -- H 25         +12.9% ( 34.7%)     96.0%
 REDUCED MASS        0.1138         C 19 -- H 28         +12.8% ( 34.6%)     95.9%
 EFFECTIVE MASS      1.1880         C 18 -- H 24         +11.0% ( 32.2%)     95.4%
 FORCE CONSTANT      0.5193         C 19 -- H 27         +11.0% ( 32.2%)     94.9%
                            C 18 -- H 26         +10.9% ( 32.0%)     95.6%

 VIBRATION        286  286A           ATOM PAIR      ENERGY CONTRIBUTION    RADIAL
 FREQUENCY          2784.10         C 14 -- H 22         +20.0% ( 43.4%)    100.0%
 TRANSITION DIPOLE   0.5882         C 95 -- H 97         +16.9% ( 39.9%)     96.1%
 TRAVEL (Ang.)       0.4570         C 95 -- H 98         +15.2% ( 37.8%)     95.7%
 REDUCED MASS        0.1160         C 95 -- H 96         +13.1% ( 35.2%)     94.7%
 EFFECTIVE MASS      1.2015
 FORCE CONSTANT      0.5296

 VIBRATION        287  287A           ATOM PAIR      ENERGY CONTRIBUTION    RADIAL
 FREQUENCY          2784.86         C 14 -- H 22         +35.6% ( 58.5%)    100.0%
 TRANSITION DIPOLE   0.9796         C 56 -- H 60         +10.2% ( 31.2%)     95.6%
 TRAVEL (Ang.)       0.4032         C 56 -- H 61          +9.7% ( 30.5%)     95.4%
 REDUCED MASS        0.1489         C 56 -- H 59          +9.5% ( 30.3%)     95.3%
 EFFECTIVE MASS      1.2532
 FORCE CONSTANT      0.6806

 VIBRATION        288  288A           ATOM PAIR      ENERGY CONTRIBUTION    RADIAL
 FREQUENCY          2784.88         C 14 -- H 22         +28.0% ( 51.6%)    100.0%
 TRANSITION DIPOLE   0.5065         C 56 -- H 60          +9.9% ( 30.7%)     95.6%
 TRAVEL (Ang.)       0.4681         C 56 -- H 61          +9.5% ( 30.1%)     95.4%
 REDUCED MASS        0.1105         C 56 -- H 59          +9.3% ( 29.7%)     95.3%
 EFFECTIVE MASS      1.2293
 FORCE CONSTANT      0.5049

           FORCE CONSTANT IN CARTESIAN COORDINATES (Millidynes/A)

    ATOM   CHEMICAL       X               Y               Z
   NUMBER   SYMBOL  FORCE CONSTANT  FORCE CONSTANT  FORCE CONSTANT

      1       H        4.169504        0.945512        0.382578
      2       C        9.689135       11.510576        2.342675
      3       C       11.197687       10.783714        2.787528
      4       C       11.002504       10.519866        2.372430
      5       N        6.541848        9.315091        6.695005
      6       C       10.849508        9.970682        2.940343
      7       C       11.042539       10.353571        2.403017
      8       H        1.730936        3.460394        0.387243
      9       C        7.912159        5.887196       12.459026
     10       C        4.920715        8.369790       12.555307
     11       C        7.135614        7.730129        7.267547
     12       C        9.579744       11.345569        2.435361
     13       H        1.796935        3.373541        0.396100
     14       C        5.625095        7.435084       10.147868
     15       O        4.654144        1.464317        9.119887
     16       C        5.242749        5.974454       10.475765
     17       O        1.423882        4.333978        9.981607
     18       C        6.402836        6.480832        6.518771
     19       C        6.607320        6.465171        6.463985
     20       C        6.414200        6.597818        6.379611
     21       H        4.218268        1.010443        0.394606
     22       H        0.602923        2.943187        1.906441
     23       H        1.701996        1.871733        1.947104
     24       H        1.245747        2.703089        1.502946
     25       H        2.289822        2.393138        0.777352
     26       H        2.367071        1.008962        2.064183
     27       H        1.878054        0.982389        2.609186
     28       H        2.066539        2.333927        1.073649
     29       H        1.772394        1.575429        2.186461
     30       H        1.642520        2.966222        0.858455
     31       H        1.080470        1.172462        3.204683
     32       H        2.257361        1.978885        1.206814
     33       C       10.206255        7.860059        5.530903
     34       C       10.268441        7.744634        5.527354
     35       C       11.332100        7.157864        5.144908
     36       H        3.563559        1.151340        0.878826
     37       C       11.680965        7.603032        5.491677
     38       H        3.335789        1.362999        0.913399
     39       C       10.223942        7.874292        5.562395
     40       H        0.930669        2.851486        1.811318
     41       C        7.806139        6.847867        6.958722
     42       C        9.889671        8.053804        5.581505
     43       H        3.296278        1.393435        0.896376
     44       N        7.370375        3.223524       10.912367
     45       C       15.576977        7.168673        4.784558
     46       H        1.663087        1.081136        2.902138
     47       H        3.534929        1.163273        0.872944
     48       C       10.360560        4.946259       13.897273
     49       H        1.857941        1.015567        2.851930
     50       O        5.148317        5.657056        2.719925
     51       O       13.883767        0.922435        0.727122
     52       O        6.018977        3.013465        5.565100
     53       O        5.704449        1.512628        8.062542
     54       H        1.299976        2.198081        1.048708
     55       C        7.736444        7.754273        7.093301
     56       C        6.668098        6.527568        6.516782
     57       C        6.452651        6.640986        6.724308
     58       C        6.565244        6.612773        6.624946
     59       H        0.799014        2.566737        2.060092
     60       H        1.387088        1.139438        2.882012
     61       H        2.254195        1.967542        1.207137
     62       H        1.751639        2.374326        1.294856
     63       H        1.221560        0.915704        3.272432
     64       H        3.089267        1.459011        0.866146
     65       H        0.871169        2.408842        2.136009
     66       H        1.008479        1.403253        2.999871
     67       H        3.188873        1.408790        0.815816
     68       C        7.032078        7.507419        7.441763
     69       N        3.738185        7.874863        9.664163
     70       H        3.085302        1.724057        1.021439
     71       C        4.530258       10.799223       11.203620
     72       H        1.759890        2.533287        1.607776
     73       C        6.598330        7.183548        6.944303
     74       C        3.502517        9.857023       10.103020
     75       C        6.775030        6.976943        6.966480
     76       H        3.451680        0.712170        1.335107
     77       H        0.645496        2.635595        2.328390
     78       C        3.614757       11.042556       11.103727
     79       H        0.457719        3.694284        1.519521
     80       C        6.219373        7.424790        6.975402
     81       H        0.711300        3.505952        1.407187
     82       H        3.474717        0.696356        1.477378
     83       C        3.112728       10.745079        8.668741
     84       H        2.603017        0.906036        1.982983
     85       H        2.759016        0.918727        1.930713
     86       C        6.093039        7.342630        6.552694
     87       H        3.402403        0.741691        1.241550
     88       H        1.954481        1.188201        2.289087
     89       H        0.602120        2.468411        2.392095
     90       H        0.664697        1.018989        3.983611
     91       C        6.416547        6.520214        6.654077
     92       H        2.582007        1.785397        1.072905
     93       H        3.072441        1.328750        1.032229
     94       H        0.569179        3.043511        1.818193
     95       C        6.510146        6.516082        6.466800
     96       H        0.718236        0.867476        3.844487
     97       H        0.706386        3.172164        1.557862
     98       H        3.294127        1.496579        0.621716

 **********************
 *                    *
 * JOB ENDED NORMALLY *
 *                    *
 **********************



 TOTAL JOB TIME:           142.34 SECONDS

 == MOPAC DONE ==
