 *******************************************************************************
 ** Site#: 36969        For non-commercial use only    Version 21.051W 64BITS **
 *******************************************************************************
 ** Cite this program as: MOPAC2016, Version: 21.051W, James J. P. Stewart,   **
 ** Stewart Computational Chemistry, web: HTTP://OpenMOPAC.net. Days left: 293**
 *******************************************************************************
 **                                                                           **
 **                                MOPAC2016                                  **
 **                                                                           **
 *******************************************************************************

                              PM7 CALCULATION RESULTS

 *******************************************************************************
 *  CALCULATION DONE:                                Mon May  3 16:52:29 2021  *
 *  PM7        - The PM7 Hamiltonian to be used
 *  GEO-OK     - OVERRIDE INTERATOMIC DISTANCE AND OTHER SAFETY CHECKS
 *  1SCF       - DO 1 SCF AND THEN STOP 
 *  T=         - A TIME OF 172800.0 SECONDS REQUESTED
 *  DUMP=N     - RESTART FILE WRITTEN EVERY 7200.0 SECONDS REQUESTED
 *  RELSCF     - DEFAULT SCF CRITERION MULTIPLIED BY 0.0001
 *              (DEFAULT SCF CRITERION = 0.00010)
 *  GRADIENTS  - ALL GRADIENTS TO BE PRINTED
 *******************************************************************************
PM7 GEO-OK 1SCF GRADIENTS RELSCF=0.0001
 Title: ASE calculation

   ATOM   CHEMICAL          X               Y               Z
  NUMBER   SYMBOL      (ANGSTROMS)     (ANGSTROMS)     (ANGSTROMS)
 
     1       C         -0.81087563  *  -1.45149216  *   0.62369275  *
     2       C          0.47780861  *  -1.70785142  *   0.87485186  *
     3       H         -1.53076244  *  -0.86847755  *   1.17069053  *
     4       H          1.10688027  *  -1.39897273  *   1.68990652  *
     5       C          1.02990947  *  -2.60729916  *  -0.20916834  *
     6       O          2.12808925  *  -3.06573481  *  -0.31772344  *
     7       C         -1.22218620  *  -2.16114711  *  -0.64707749  *
     8       O         -2.29206592  *  -2.18618560  *  -1.17836321  *
     9       C         -0.08641598  *  -3.92717622  *  -2.02132571  *
    10       C          0.15783071  *  -3.83172073  *  -3.40137889  *
    11       C         -0.39502688  *  -5.15456123  *  -1.41171569  *
    12       C          0.09580008  *  -5.02876466  *  -4.12868515  *
    13       C         -0.46154956  *  -6.31650753  *  -2.16605174  *
    14       H         -0.58525295  *  -5.19217048  *  -0.34072112  *
    15       C         -0.20944308  *  -6.24827543  *  -3.53370506  *
    16       H          0.28875079  *  -5.02841292  *  -5.20192504  *
    17       H         -0.70893048  *  -7.26523767  *  -1.69372409  *
    18       H         -0.25653060  *  -7.15164053  *  -4.14056128  *
    19       C          0.45309400  *  -2.52483180  *  -4.11859074  *
    20       C          1.70377526  *  -1.86489745  *  -3.51653010  *
    21       H          1.49652276  *  -1.37655278  *  -2.56098759  *
    22       H          2.49658787  *  -2.59932161  *  -3.33668782  *
    23       H          2.10955803  *  -1.09486611  *  -4.18132068  *
    24       C          0.71990394  *  -2.72914461  *  -5.62516546  *
    25       H         -0.14240154  *  -3.17527058  *  -6.12995240  *
    26       H          0.91495876  *  -1.77143484  *  -6.11992348  *
    27       H          1.59670227  *  -3.36071977  *  -5.79796923  *
    28       C         -0.76893002  *  -1.60040918  *  -3.99433726  *
    29       H         -1.69792157  *  -2.13461054  *  -4.22058394  *
    30       H         -0.87194278  *  -1.18736342  *  -2.98785831  *
    31       H         -0.69701217  *  -0.74819860  *  -4.67814939  *
    32       N         -0.04338284  *  -2.80690949  *  -1.13035052  *
    33       C          0.90214521  *   1.51932312  *   0.50020719  *
    34       C         -0.37626200  *   1.77497709  *   0.80020621  *
    35       H          1.63579256  *   0.91803181  *   1.00754995  *
    36       H         -0.98071799  *   1.44763470  *   1.62646383  *
    37       C         -0.96044017  *   2.70202442  *  -0.24327788  *
    38       O         -2.05984342  *   3.16394054  *  -0.30691352  *
    39       C          1.27556041  *   2.25996068  *  -0.76445819  *
    40       O          2.32781079  *   2.29756370  *  -1.32915409  *
    41       C          0.10010010  *   4.05656980  *  -2.06364077  *
    42       C         -0.17295273  *   3.98266096  *  -3.43966313  *
    43       C          0.41288905  *   5.27529169  *  -1.43903133  *
    44       C         -0.13499896  *   5.19232455  *  -4.14738248  *
    45       C          0.45573975  *   6.45022664  *  -2.17475383  *
    46       H          0.62463611  *   5.29525279  *  -0.37163600  *
    47       C          0.17515346  *   6.40342112  *  -3.53769142  *
    48       H         -0.35161693  *   5.20928127  *  -5.21587431  *
    49       H          0.70670583  *   7.39241462  *  -1.69116810  *
    50       H          0.20277860  *   7.31745745  *  -4.12964636  *
    51       C         -0.47744804  *   2.68578337  *  -4.17087162  *
    52       C         -1.72339910  *   2.02230479  *  -3.56273436  *
    53       H         -1.51014770  *   1.53608136  *  -2.60702121  *
    54       H         -2.51784014  *   2.75424601  *  -3.37988316  *
    55       H         -2.12899297  *   1.25025833  *  -4.22504204  *
    56       C         -0.76035851  *   2.91113370  *  -5.67149216  *
    57       H          0.09478967  *   3.36939756  *  -6.17766634  *
    58       H         -0.95540641  *   1.95985074  *  -6.17840499  *
    59       H         -1.64231764  *   3.54013560  *  -5.82622909  *
    60       C          0.74229251  *   1.75472966  *  -4.07342863  *
    61       H          1.67470741  *   2.29634373  *  -4.26710958  *
    62       H          0.83403083  *   1.29828265  *  -3.08448522  *
    63       H          0.67697614  *   0.93238823  *  -4.79338996  *
    64       N          0.08396750  *   2.92057922  *  -1.19300793  *
 


          CARTESIAN COORDINATES 

    NO.       ATOM           X           Y           Z

     1         C         -0.8109     -1.4515      0.6237
     2         C          0.4778     -1.7079      0.8749
     3         H         -1.5308     -0.8685      1.1707
     4         H          1.1069     -1.3990      1.6899
     5         C          1.0299     -2.6073     -0.2092
     6         O          2.1281     -3.0657     -0.3177
     7         C         -1.2222     -2.1611     -0.6471
     8         O         -2.2921     -2.1862     -1.1784
     9         C         -0.0864     -3.9272     -2.0213
    10         C          0.1578     -3.8317     -3.4014
    11         C         -0.3950     -5.1546     -1.4117
    12         C          0.0958     -5.0288     -4.1287
    13         C         -0.4615     -6.3165     -2.1661
    14         H         -0.5853     -5.1922     -0.3407
    15         C         -0.2094     -6.2483     -3.5337
    16         H          0.2888     -5.0284     -5.2019
    17         H         -0.7089     -7.2652     -1.6937
    18         H         -0.2565     -7.1516     -4.1406
    19         C          0.4531     -2.5248     -4.1186
    20         C          1.7038     -1.8649     -3.5165
    21         H          1.4965     -1.3766     -2.5610
    22         H          2.4966     -2.5993     -3.3367
    23         H          2.1096     -1.0949     -4.1813
    24         C          0.7199     -2.7291     -5.6252
    25         H         -0.1424     -3.1753     -6.1300
    26         H          0.9150     -1.7714     -6.1199
    27         H          1.5967     -3.3607     -5.7980
    28         C         -0.7689     -1.6004     -3.9943
    29         H         -1.6979     -2.1346     -4.2206
    30         H         -0.8719     -1.1874     -2.9879
    31         H         -0.6970     -0.7482     -4.6781
    32         N         -0.0434     -2.8069     -1.1304
    33         C          0.9021      1.5193      0.5002
    34         C         -0.3763      1.7750      0.8002
    35         H          1.6358      0.9180      1.0075
    36         H         -0.9807      1.4476      1.6265
    37         C         -0.9604      2.7020     -0.2433
    38         O         -2.0598      3.1639     -0.3069
    39         C          1.2756      2.2600     -0.7645
    40         O          2.3278      2.2976     -1.3292
    41         C          0.1001      4.0566     -2.0636
    42         C         -0.1730      3.9827     -3.4397
    43         C          0.4129      5.2753     -1.4390
    44         C         -0.1350      5.1923     -4.1474
    45         C          0.4557      6.4502     -2.1748
    46         H          0.6246      5.2953     -0.3716
    47         C          0.1752      6.4034     -3.5377
    48         H         -0.3516      5.2093     -5.2159
    49         H          0.7067      7.3924     -1.6912
    50         H          0.2028      7.3175     -4.1296
    51         C         -0.4774      2.6858     -4.1709
    52         C         -1.7234      2.0223     -3.5627
    53         H         -1.5101      1.5361     -2.6070
    54         H         -2.5178      2.7542     -3.3799
    55         H         -2.1290      1.2503     -4.2250
    56         C         -0.7604      2.9111     -5.6715
    57         H          0.0948      3.3694     -6.1777
    58         H         -0.9554      1.9599     -6.1784
    59         H         -1.6423      3.5401     -5.8262
    60         C          0.7423      1.7547     -4.0734
    61         H          1.6747      2.2963     -4.2671
    62         H          0.8340      1.2983     -3.0845
    63         H          0.6770      0.9324     -4.7934
    64         N          0.0840      2.9206     -1.1930

 General Reference for PM7:
 "Optimization of Parameters for Semiempirical Methods VI: More Modifications to the 
 NDDO Approximations and Re-optimization of Parameters", J. J. P. Stewart, J. Mol. Mod., 1:32, 19 (2013)
 https://link.springer.com/article/10.1007/s00894-012-1667-x

           Empirical Formula: C28 H30 N2 O4  =    64 atoms



      MOLECULAR POINT GROUP   :   C2  


      RHF CALCULATION, NO. OF DOUBLY OCCUPIED LEVELS = 88

  SCF CRITERION =    0.1000E-07

 -------------------------------------------------------------------------------
 PM7 GEO-OK 1SCF GRADIENTS RELSCF=0.0001
 Title: ASE calculation



     1SCF WAS SPECIFIED, SO BFGS WAS NOT USED                 
     SCF FIELD WAS ACHIEVED                                   


                              PM7 CALCULATION
                                                       MOPAC2016 (Version: 21.051W)
                                                       Mon May  3 16:52:29 2021
                                                       No. of days remaining = 293




          FINAL HEAT OF FORMATION =        -83.62488 KCAL/MOL =    -349.88649 KJ/MOL


          TOTAL ENERGY            =      -5396.59784 EV
          ELECTRONIC ENERGY       =     -53260.13666 EV  POINT GROUP:     C2  
          CORE-CORE REPULSION     =      47863.53882 EV
          COSMO AREA              =        419.35 SQUARE ANGSTROMS
          COSMO VOLUME            =        584.58 CUBIC ANGSTROMS

          GRADIENT NORM           =          4.44217 = 0.55527 PER ATOM
          IONIZATION POTENTIAL    =          9.554261 EV
          HOMO LUMO ENERGIES (EV) =         -9.554 -1.583
          NO. OF FILLED LEVELS    =         88
          MOLECULAR WEIGHT        =        458.5560

          MOLECULAR DIMENSIONS (Angstroms)

            Atom       Atom       Distance
            H    50    H    17    14.81283
            H    36    H    27     8.58112
            H    54    O     6     5.41886


          SCF CALCULATIONS        =          1
 
          WALL-CLOCK TIME         =          0.227 SECONDS
          COMPUTATION TIME        =          0.828 SECONDS

          LARGEST ATOMIC GRADIENTS

          Atom     Label                     Cartesian Gradients           Cartesian Coordinates       |Gradient|
                                           X          Y          Z        X          Y          Z

            38       O                   0.880     -0.629      0.119   -2.05984    3.16394   -0.30691      1.088
            37       C                  -0.733      0.712     -0.156   -0.96044    2.70202   -0.24328      1.034
            21       H                   0.590      0.308     -0.735    1.49652   -1.37655   -2.56099      0.991
             5       C                  -0.902      0.136     -0.057    1.02991   -2.60730   -0.20917      0.914
            53       H                  -0.521     -0.315     -0.617   -1.51015    1.53608   -2.60702      0.867
            64       N                  -0.699     -0.205     -0.354    0.08397    2.92058   -1.19301      0.810
            32       N                   0.667      0.426     -0.146   -0.04338   -2.80691   -1.13035      0.805
             7       C                   0.722     -0.145      0.297   -1.22219   -2.16115   -0.64708      0.794
            26       H                  -0.212     -0.727     -0.192    0.91496   -1.77143   -6.11992      0.781
            58       H                   0.249      0.708     -0.158   -0.95541    1.95985   -6.17840      0.767



       FINAL  POINT  AND  DERIVATIVES

   PARAMETER     ATOM    TYPE            VALUE        GRADIENT
      1          1  C    CARTESIAN X    -0.810876      0.111851  KCAL/ANGSTROM
      2          1  C    CARTESIAN Y    -1.451492      0.115119  KCAL/ANGSTROM
      3          1  C    CARTESIAN Z     0.623693      0.430382  KCAL/ANGSTROM
      4          2  C    CARTESIAN X     0.477809     -0.372735  KCAL/ANGSTROM
      5          2  C    CARTESIAN Y    -1.707851      0.195224  KCAL/ANGSTROM
      6          2  C    CARTESIAN Z     0.874852      0.037628  KCAL/ANGSTROM
      7          3  H    CARTESIAN X    -1.530762     -0.179992  KCAL/ANGSTROM
      8          3  H    CARTESIAN Y    -0.868478      0.091784  KCAL/ANGSTROM
      9          3  H    CARTESIAN Z     1.170691      0.553581  KCAL/ANGSTROM
     10          4  H    CARTESIAN X     1.106880     -0.201860  KCAL/ANGSTROM
     11          4  H    CARTESIAN Y    -1.398973     -0.205800  KCAL/ANGSTROM
     12          4  H    CARTESIAN Z     1.689907      0.551345  KCAL/ANGSTROM
     13          5  C    CARTESIAN X     1.029909     -0.901699  KCAL/ANGSTROM
     14          5  C    CARTESIAN Y    -2.607299      0.136034  KCAL/ANGSTROM
     15          5  C    CARTESIAN Z    -0.209168     -0.057218  KCAL/ANGSTROM
     16          6  O    CARTESIAN X     2.128089      0.537912  KCAL/ANGSTROM
     17          6  O    CARTESIAN Y    -3.065735      0.004949  KCAL/ANGSTROM
     18          6  O    CARTESIAN Z    -0.317723      0.133816  KCAL/ANGSTROM
     19          7  C    CARTESIAN X    -1.222186      0.722124  KCAL/ANGSTROM
     20          7  C    CARTESIAN Y    -2.161147     -0.145096  KCAL/ANGSTROM
     21          7  C    CARTESIAN Z    -0.647077      0.296991  KCAL/ANGSTROM
     22          8  O    CARTESIAN X    -2.292066      0.263669  KCAL/ANGSTROM
     23          8  O    CARTESIAN Y    -2.186186      0.630375  KCAL/ANGSTROM
     24          8  O    CARTESIAN Z    -1.178363     -0.044018  KCAL/ANGSTROM
     25          9  C    CARTESIAN X    -0.086416      0.079308  KCAL/ANGSTROM
     26          9  C    CARTESIAN Y    -3.927176     -0.111709  KCAL/ANGSTROM
     27          9  C    CARTESIAN Z    -2.021326     -0.480375  KCAL/ANGSTROM
     28         10  C    CARTESIAN X     0.157831      0.239009  KCAL/ANGSTROM
     29         10  C    CARTESIAN Y    -3.831721      0.162954  KCAL/ANGSTROM
     30         10  C    CARTESIAN Z    -3.401379      0.113799  KCAL/ANGSTROM
     31         11  C    CARTESIAN X    -0.395027      0.038885  KCAL/ANGSTROM
     32         11  C    CARTESIAN Y    -5.154561      0.067398  KCAL/ANGSTROM
     33         11  C    CARTESIAN Z    -1.411716     -0.051853  KCAL/ANGSTROM
     34         12  C    CARTESIAN X     0.095800      0.083976  KCAL/ANGSTROM
     35         12  C    CARTESIAN Y    -5.028765      0.369002  KCAL/ANGSTROM
     36         12  C    CARTESIAN Z    -4.128685     -0.010266  KCAL/ANGSTROM
     37         13  C    CARTESIAN X    -0.461550      0.066497  KCAL/ANGSTROM
     38         13  C    CARTESIAN Y    -6.316508     -0.146716  KCAL/ANGSTROM
     39         13  C    CARTESIAN Z    -2.166052     -0.011392  KCAL/ANGSTROM
     40         14  H    CARTESIAN X    -0.585253     -0.027120  KCAL/ANGSTROM
     41         14  H    CARTESIAN Y    -5.192170      0.308515  KCAL/ANGSTROM
     42         14  H    CARTESIAN Z    -0.340721     -0.184782  KCAL/ANGSTROM
     43         15  C    CARTESIAN X    -0.209443      0.210109  KCAL/ANGSTROM
     44         15  C    CARTESIAN Y    -6.248275      0.005956  KCAL/ANGSTROM
     45         15  C    CARTESIAN Z    -3.533705      0.141632  KCAL/ANGSTROM
     46         16  H    CARTESIAN X     0.288751      0.108644  KCAL/ANGSTROM
     47         16  H    CARTESIAN Y    -5.028413     -0.069633  KCAL/ANGSTROM
     48         16  H    CARTESIAN Z    -5.201925      0.208042  KCAL/ANGSTROM
     49         17  H    CARTESIAN X    -0.708930     -0.286234  KCAL/ANGSTROM
     50         17  H    CARTESIAN Y    -7.265238     -0.090733  KCAL/ANGSTROM
     51         17  H    CARTESIAN Z    -1.693724      0.254440  KCAL/ANGSTROM
     52         18  H    CARTESIAN X    -0.256531     -0.337299  KCAL/ANGSTROM
     53         18  H    CARTESIAN Y    -7.151641     -0.194519  KCAL/ANGSTROM
     54         18  H    CARTESIAN Z    -4.140561      0.021002  KCAL/ANGSTROM
     55         19  C    CARTESIAN X     0.453094     -0.256154  KCAL/ANGSTROM
     56         19  C    CARTESIAN Y    -2.524832     -0.357259  KCAL/ANGSTROM
     57         19  C    CARTESIAN Z    -4.118591     -0.512785  KCAL/ANGSTROM
     58         20  C    CARTESIAN X     1.703775     -0.450235  KCAL/ANGSTROM
     59         20  C    CARTESIAN Y    -1.864897     -0.422823  KCAL/ANGSTROM
     60         20  C    CARTESIAN Z    -3.516530     -0.401835  KCAL/ANGSTROM
     61         21  H    CARTESIAN X     1.496523      0.589670  KCAL/ANGSTROM
     62         21  H    CARTESIAN Y    -1.376553      0.308363  KCAL/ANGSTROM
     63         21  H    CARTESIAN Z    -2.560988     -0.734726  KCAL/ANGSTROM
     64         22  H    CARTESIAN X     2.496588     -0.220518  KCAL/ANGSTROM
     65         22  H    CARTESIAN Y    -2.599322      0.535540  KCAL/ANGSTROM
     66         22  H    CARTESIAN Z    -3.336688      0.052956  KCAL/ANGSTROM
     67         23  H    CARTESIAN X     2.109558     -0.063390  KCAL/ANGSTROM
     68         23  H    CARTESIAN Y    -1.094866     -0.432186  KCAL/ANGSTROM
     69         23  H    CARTESIAN Z    -4.181321      0.017392  KCAL/ANGSTROM
     70         24  C    CARTESIAN X     0.719904     -0.167330  KCAL/ANGSTROM
     71         24  C    CARTESIAN Y    -2.729145     -0.248816  KCAL/ANGSTROM
     72         24  C    CARTESIAN Z    -5.625165     -0.046816  KCAL/ANGSTROM
     73         25  H    CARTESIAN X    -0.142402      0.299305  KCAL/ANGSTROM
     74         25  H    CARTESIAN Y    -3.175271      0.105342  KCAL/ANGSTROM
     75         25  H    CARTESIAN Z    -6.129952      0.422574  KCAL/ANGSTROM
     76         26  H    CARTESIAN X     0.914959     -0.211563  KCAL/ANGSTROM
     77         26  H    CARTESIAN Y    -1.771435     -0.726824  KCAL/ANGSTROM
     78         26  H    CARTESIAN Z    -6.119923     -0.192306  KCAL/ANGSTROM
     79         27  H    CARTESIAN X     1.596702     -0.265063  KCAL/ANGSTROM
     80         27  H    CARTESIAN Y    -3.360720      0.353557  KCAL/ANGSTROM
     81         27  H    CARTESIAN Z    -5.797969     -0.124176  KCAL/ANGSTROM
     82         28  C    CARTESIAN X    -0.768930      0.237581  KCAL/ANGSTROM
     83         28  C    CARTESIAN Y    -1.600409     -0.333040  KCAL/ANGSTROM
     84         28  C    CARTESIAN Z    -3.994337     -0.194228  KCAL/ANGSTROM
     85         29  H    CARTESIAN X    -1.697922      0.447221  KCAL/ANGSTROM
     86         29  H    CARTESIAN Y    -2.134611      0.211998  KCAL/ANGSTROM
     87         29  H    CARTESIAN Z    -4.220584      0.011574  KCAL/ANGSTROM
     88         30  H    CARTESIAN X    -0.871943      0.189040  KCAL/ANGSTROM
     89         30  H    CARTESIAN Y    -1.187363     -0.155355  KCAL/ANGSTROM
     90         30  H    CARTESIAN Z    -2.987858     -0.556621  KCAL/ANGSTROM
     91         31  H    CARTESIAN X    -0.697012      0.056915  KCAL/ANGSTROM
     92         31  H    CARTESIAN Y    -0.748199     -0.346900  KCAL/ANGSTROM
     93         31  H    CARTESIAN Z    -4.678149      0.320066  KCAL/ANGSTROM
     94         32  N    CARTESIAN X    -0.043383      0.667022  KCAL/ANGSTROM
     95         32  N    CARTESIAN Y    -2.806909      0.426343  KCAL/ANGSTROM
     96         32  N    CARTESIAN Z    -1.130351     -0.146243  KCAL/ANGSTROM
     97         33  C    CARTESIAN X     0.902145     -0.014563  KCAL/ANGSTROM
     98         33  C    CARTESIAN Y     1.519323     -0.227487  KCAL/ANGSTROM
     99         33  C    CARTESIAN Z     0.500207      0.433517  KCAL/ANGSTROM
    100         34  C    CARTESIAN X    -0.376262      0.414860  KCAL/ANGSTROM
    101         34  C    CARTESIAN Y     1.774977     -0.171663  KCAL/ANGSTROM
    102         34  C    CARTESIAN Z     0.800206      0.179189  KCAL/ANGSTROM
    103         35  H    CARTESIAN X     1.635793      0.153051  KCAL/ANGSTROM
    104         35  H    CARTESIAN Y     0.918032     -0.014594  KCAL/ANGSTROM
    105         35  H    CARTESIAN Z     1.007550      0.530442  KCAL/ANGSTROM
    106         36  H    CARTESIAN X    -0.980718      0.141291  KCAL/ANGSTROM
    107         36  H    CARTESIAN Y     1.447635      0.129745  KCAL/ANGSTROM
    108         36  H    CARTESIAN Z     1.626464      0.525261  KCAL/ANGSTROM
    109         37  C    CARTESIAN X    -0.960440     -0.733324  KCAL/ANGSTROM
    110         37  C    CARTESIAN Y     2.702024      0.712092  KCAL/ANGSTROM
    111         37  C    CARTESIAN Z    -0.243278     -0.155850  KCAL/ANGSTROM
    112         38  O    CARTESIAN X    -2.059843      0.879855  KCAL/ANGSTROM
    113         38  O    CARTESIAN Y     3.163941     -0.629176  KCAL/ANGSTROM
    114         38  O    CARTESIAN Z    -0.306914      0.118925  KCAL/ANGSTROM
    115         39  C    CARTESIAN X     1.275560     -0.472447  KCAL/ANGSTROM
    116         39  C    CARTESIAN Y     2.259961      0.088333  KCAL/ANGSTROM
    117         39  C    CARTESIAN Z    -0.764458      0.255150  KCAL/ANGSTROM
    118         40  O    CARTESIAN X     2.327811     -0.424551  KCAL/ANGSTROM
    119         40  O    CARTESIAN Y     2.297564     -0.583018  KCAL/ANGSTROM
    120         40  O    CARTESIAN Z    -1.329154     -0.045569  KCAL/ANGSTROM
    121         41  C    CARTESIAN X     0.100100     -0.065559  KCAL/ANGSTROM
    122         41  C    CARTESIAN Y     4.056570     -0.019424  KCAL/ANGSTROM
    123         41  C    CARTESIAN Z    -2.063641     -0.256698  KCAL/ANGSTROM
    124         42  C    CARTESIAN X    -0.172953     -0.257477  KCAL/ANGSTROM
    125         42  C    CARTESIAN Y     3.982661     -0.244339  KCAL/ANGSTROM
    126         42  C    CARTESIAN Z    -3.439663      0.046704  KCAL/ANGSTROM
    127         43  C    CARTESIAN X     0.412889     -0.026995  KCAL/ANGSTROM
    128         43  C    CARTESIAN Y     5.275292      0.039121  KCAL/ANGSTROM
    129         43  C    CARTESIAN Z    -1.439031     -0.025181  KCAL/ANGSTROM
    130         44  C    CARTESIAN X    -0.134999     -0.111461  KCAL/ANGSTROM
    131         44  C    CARTESIAN Y     5.192325     -0.321497  KCAL/ANGSTROM
    132         44  C    CARTESIAN Z    -4.147382      0.005080  KCAL/ANGSTROM
    133         45  C    CARTESIAN X     0.455740     -0.084151  KCAL/ANGSTROM
    134         45  C    CARTESIAN Y     6.450227      0.102248  KCAL/ANGSTROM
    135         45  C    CARTESIAN Z    -2.174754     -0.045675  KCAL/ANGSTROM
    136         46  H    CARTESIAN X     0.624636     -0.000327  KCAL/ANGSTROM
    137         46  H    CARTESIAN Y     5.295253     -0.374593  KCAL/ANGSTROM
    138         46  H    CARTESIAN Z    -0.371636     -0.187920  KCAL/ANGSTROM
    139         47  C    CARTESIAN X     0.175153     -0.135133  KCAL/ANGSTROM
    140         47  C    CARTESIAN Y     6.403421     -0.087445  KCAL/ANGSTROM
    141         47  C    CARTESIAN Z    -3.537691      0.158589  KCAL/ANGSTROM
    142         48  H    CARTESIAN X    -0.351617     -0.091492  KCAL/ANGSTROM
    143         48  H    CARTESIAN Y     5.209281      0.075342  KCAL/ANGSTROM
    144         48  H    CARTESIAN Z    -5.215874      0.222427  KCAL/ANGSTROM
    145         49  H    CARTESIAN X     0.706706      0.300334  KCAL/ANGSTROM
    146         49  H    CARTESIAN Y     7.392415      0.089976  KCAL/ANGSTROM
    147         49  H    CARTESIAN Z    -1.691168      0.303074  KCAL/ANGSTROM
    148         50  H    CARTESIAN X     0.202779      0.300568  KCAL/ANGSTROM
    149         50  H    CARTESIAN Y     7.317457      0.208015  KCAL/ANGSTROM
    150         50  H    CARTESIAN Z    -4.129646      0.035283  KCAL/ANGSTROM
    151         51  C    CARTESIAN X    -0.477448      0.216491  KCAL/ANGSTROM
    152         51  C    CARTESIAN Y     2.685783      0.366794  KCAL/ANGSTROM
    153         51  C    CARTESIAN Z    -4.170872     -0.500595  KCAL/ANGSTROM
    154         52  C    CARTESIAN X    -1.723399      0.417206  KCAL/ANGSTROM
    155         52  C    CARTESIAN Y     2.022305      0.386290  KCAL/ANGSTROM
    156         52  C    CARTESIAN Z    -3.562734     -0.412316  KCAL/ANGSTROM
    157         53  H    CARTESIAN X    -1.510148     -0.520815  KCAL/ANGSTROM
    158         53  H    CARTESIAN Y     1.536081     -0.315264  KCAL/ANGSTROM
    159         53  H    CARTESIAN Z    -2.607021     -0.616719  KCAL/ANGSTROM
    160         54  H    CARTESIAN X    -2.517840      0.196321  KCAL/ANGSTROM
    161         54  H    CARTESIAN Y     2.754246     -0.490329  KCAL/ANGSTROM
    162         54  H    CARTESIAN Z    -3.379883      0.108595  KCAL/ANGSTROM
    163         55  H    CARTESIAN X    -2.128993      0.079938  KCAL/ANGSTROM
    164         55  H    CARTESIAN Y     1.250258      0.394414  KCAL/ANGSTROM
    165         55  H    CARTESIAN Z    -4.225042      0.030060  KCAL/ANGSTROM
    166         56  C    CARTESIAN X    -0.760359      0.166561  KCAL/ANGSTROM
    167         56  C    CARTESIAN Y     2.911134      0.268822  KCAL/ANGSTROM
    168         56  C    CARTESIAN Z    -5.671492     -0.084462  KCAL/ANGSTROM
    169         57  H    CARTESIAN X     0.094790     -0.286284  KCAL/ANGSTROM
    170         57  H    CARTESIAN Y     3.369398     -0.126486  KCAL/ANGSTROM
    171         57  H    CARTESIAN Z    -6.177666      0.445422  KCAL/ANGSTROM
    172         58  H    CARTESIAN X    -0.955406      0.249312  KCAL/ANGSTROM
    173         58  H    CARTESIAN Y     1.959851      0.707632  KCAL/ANGSTROM
    174         58  H    CARTESIAN Z    -6.178405     -0.157607  KCAL/ANGSTROM
    175         59  H    CARTESIAN X    -1.642318      0.258455  KCAL/ANGSTROM
    176         59  H    CARTESIAN Y     3.540136     -0.381422  KCAL/ANGSTROM
    177         59  H    CARTESIAN Z    -5.826229     -0.096436  KCAL/ANGSTROM
    178         60  C    CARTESIAN X     0.742293     -0.216231  KCAL/ANGSTROM
    179         60  C    CARTESIAN Y     1.754730      0.344329  KCAL/ANGSTROM
    180         60  C    CARTESIAN Z    -4.073429     -0.140972  KCAL/ANGSTROM
    181         61  H    CARTESIAN X     1.674707     -0.366022  KCAL/ANGSTROM
    182         61  H    CARTESIAN Y     2.296344     -0.179836  KCAL/ANGSTROM
    183         61  H    CARTESIAN Z    -4.267110     -0.051347  KCAL/ANGSTROM
    184         62  H    CARTESIAN X     0.834031     -0.117917  KCAL/ANGSTROM
    185         62  H    CARTESIAN Y     1.298283      0.160796  KCAL/ANGSTROM
    186         62  H    CARTESIAN Z    -3.084485     -0.417427  KCAL/ANGSTROM
    187         63  H    CARTESIAN X     0.676976     -0.157628  KCAL/ANGSTROM
    188         63  H    CARTESIAN Y     0.932388      0.256595  KCAL/ANGSTROM
    189         63  H    CARTESIAN Z    -4.793390      0.333682  KCAL/ANGSTROM
    190         64  N    CARTESIAN X     0.083967     -0.699427  KCAL/ANGSTROM
    191         64  N    CARTESIAN Y     2.920579     -0.205024  KCAL/ANGSTROM
    192         64  N    CARTESIAN Z    -1.193008     -0.354214  KCAL/ANGSTROM




   ATOM   CHEMICAL          X               Y               Z
  NUMBER   SYMBOL      (ANGSTROMS)     (ANGSTROMS)     (ANGSTROMS)
 
     1       C         -0.81087563  *  -1.45149216  *   0.62369275  *
     2       C          0.47780861  *  -1.70785142  *   0.87485186  *
     3       H         -1.53076244  *  -0.86847755  *   1.17069053  *
     4       H          1.10688027  *  -1.39897273  *   1.68990652  *
     5       C          1.02990947  *  -2.60729916  *  -0.20916834  *
     6       O          2.12808925  *  -3.06573481  *  -0.31772344  *
     7       C         -1.22218620  *  -2.16114711  *  -0.64707749  *
     8       O         -2.29206592  *  -2.18618560  *  -1.17836321  *
     9       C         -0.08641598  *  -3.92717622  *  -2.02132571  *
    10       C          0.15783071  *  -3.83172073  *  -3.40137889  *
    11       C         -0.39502688  *  -5.15456123  *  -1.41171569  *
    12       C          0.09580008  *  -5.02876466  *  -4.12868515  *
    13       C         -0.46154956  *  -6.31650753  *  -2.16605174  *
    14       H         -0.58525295  *  -5.19217048  *  -0.34072112  *
    15       C         -0.20944308  *  -6.24827543  *  -3.53370506  *
    16       H          0.28875079  *  -5.02841292  *  -5.20192504  *
    17       H         -0.70893048  *  -7.26523767  *  -1.69372409  *
    18       H         -0.25653060  *  -7.15164053  *  -4.14056128  *
    19       C          0.45309400  *  -2.52483180  *  -4.11859074  *
    20       C          1.70377526  *  -1.86489745  *  -3.51653010  *
    21       H          1.49652276  *  -1.37655278  *  -2.56098759  *
    22       H          2.49658787  *  -2.59932161  *  -3.33668782  *
    23       H          2.10955803  *  -1.09486611  *  -4.18132068  *
    24       C          0.71990394  *  -2.72914461  *  -5.62516546  *
    25       H         -0.14240154  *  -3.17527058  *  -6.12995240  *
    26       H          0.91495876  *  -1.77143484  *  -6.11992348  *
    27       H          1.59670227  *  -3.36071977  *  -5.79796923  *
    28       C         -0.76893002  *  -1.60040918  *  -3.99433726  *
    29       H         -1.69792157  *  -2.13461054  *  -4.22058394  *
    30       H         -0.87194278  *  -1.18736342  *  -2.98785831  *
    31       H         -0.69701217  *  -0.74819860  *  -4.67814939  *
    32       N         -0.04338284  *  -2.80690949  *  -1.13035052  *
    33       C          0.90214521  *   1.51932312  *   0.50020719  *
    34       C         -0.37626200  *   1.77497709  *   0.80020621  *
    35       H          1.63579256  *   0.91803181  *   1.00754995  *
    36       H         -0.98071799  *   1.44763470  *   1.62646383  *
    37       C         -0.96044017  *   2.70202442  *  -0.24327788  *
    38       O         -2.05984342  *   3.16394054  *  -0.30691352  *
    39       C          1.27556041  *   2.25996068  *  -0.76445819  *
    40       O          2.32781079  *   2.29756370  *  -1.32915409  *
    41       C          0.10010010  *   4.05656980  *  -2.06364077  *
    42       C         -0.17295273  *   3.98266096  *  -3.43966313  *
    43       C          0.41288905  *   5.27529169  *  -1.43903133  *
    44       C         -0.13499896  *   5.19232455  *  -4.14738248  *
    45       C          0.45573975  *   6.45022664  *  -2.17475383  *
    46       H          0.62463611  *   5.29525279  *  -0.37163600  *
    47       C          0.17515346  *   6.40342112  *  -3.53769142  *
    48       H         -0.35161693  *   5.20928127  *  -5.21587431  *
    49       H          0.70670583  *   7.39241462  *  -1.69116810  *
    50       H          0.20277860  *   7.31745745  *  -4.12964636  *
    51       C         -0.47744804  *   2.68578337  *  -4.17087162  *
    52       C         -1.72339910  *   2.02230479  *  -3.56273436  *
    53       H         -1.51014770  *   1.53608136  *  -2.60702121  *
    54       H         -2.51784014  *   2.75424601  *  -3.37988316  *
    55       H         -2.12899297  *   1.25025833  *  -4.22504204  *
    56       C         -0.76035851  *   2.91113370  *  -5.67149216  *
    57       H          0.09478967  *   3.36939756  *  -6.17766634  *
    58       H         -0.95540641  *   1.95985074  *  -6.17840499  *
    59       H         -1.64231764  *   3.54013560  *  -5.82622909  *
    60       C          0.74229251  *   1.75472966  *  -4.07342863  *
    61       H          1.67470741  *   2.29634373  *  -4.26710958  *
    62       H          0.83403083  *   1.29828265  *  -3.08448522  *
    63       H          0.67697614  *   0.93238823  *  -4.79338996  *
    64       N          0.08396750  *   2.92057922  *  -1.19300793  *

                             CARTESIAN COORDINATES

   1    C       -0.810875628    -1.451492156     0.623692747
   2    C        0.477808610    -1.707851415     0.874851858
   3    H       -1.530762436    -0.868477550     1.170690531
   4    H        1.106880273    -1.398972729     1.689906522
   5    C        1.029909465    -2.607299164    -0.209168341
   6    O        2.128089246    -3.065734809    -0.317723439
   7    C       -1.222186198    -2.161147106    -0.647077487
   8    O       -2.292065923    -2.186185597    -1.178363211
   9    C       -0.086415979    -3.927176222    -2.021325712
  10    C        0.157830714    -3.831720733    -3.401378890
  11    C       -0.395026877    -5.154561235    -1.411715694
  12    C        0.095800083    -5.028764660    -4.128685152
  13    C       -0.461549560    -6.316507528    -2.166051736
  14    H       -0.585252947    -5.192170478    -0.340721123
  15    C       -0.209443085    -6.248275428    -3.533705064
  16    H        0.288750792    -5.028412917    -5.201925039
  17    H       -0.708930475    -7.265237672    -1.693724093
  18    H       -0.256530598    -7.151640534    -4.140561278
  19    C        0.453093997    -2.524831798    -4.118590740
  20    C        1.703775256    -1.864897452    -3.516530100
  21    H        1.496522764    -1.376552775    -2.560987588
  22    H        2.496587868    -2.599321608    -3.336687823
  23    H        2.109558033    -1.094866108    -4.181320682
  24    C        0.719903941    -2.729144611    -5.625165459
  25    H       -0.142401536    -3.175270584    -6.129952402
  26    H        0.914958763    -1.771434843    -6.119923478
  27    H        1.596702269    -3.360719775    -5.797969228
  28    C       -0.768930019    -1.600409177    -3.994337264
  29    H       -1.697921573    -2.134610540    -4.220583944
  30    H       -0.871942785    -1.187363416    -2.987858309
  31    H       -0.697012169    -0.748198600    -4.678149385
  32    N       -0.043382839    -2.806909489    -1.130350525
  33    C        0.902145212     1.519323124     0.500207189
  34    C       -0.376261995     1.774977094     0.800206206
  35    H        1.635792557     0.918031807     1.007549955
  36    H       -0.980717986     1.447634696     1.626463828
  37    C       -0.960440165     2.702024418    -0.243277882
  38    O       -2.059843418     3.163940542    -0.306913523
  39    C        1.275560415     2.259960678    -0.764458187
  40    O        2.327810795     2.297563702    -1.329154092
  41    C        0.100100100     4.056569795    -2.063640768
  42    C       -0.172952727     3.982660956    -3.439663130
  43    C        0.412889052     5.275291687    -1.439031333
  44    C       -0.134998957     5.192324549    -4.147382480
  45    C        0.455739752     6.450226642    -2.174753825
  46    H        0.624636108     5.295252790    -0.371636002
  47    C        0.175153456     6.403421120    -3.537691423
  48    H       -0.351616931     5.209281270    -5.215874309
  49    H        0.706705834     7.392414619    -1.691168097
  50    H        0.202778597     7.317457446    -4.129646361
  51    C       -0.477448035     2.685783373    -4.170871616
  52    C       -1.723399098     2.022304792    -3.562734363
  53    H       -1.510147695     1.536081364    -2.607021212
  54    H       -2.517840136     2.754246014    -3.379883160
  55    H       -2.128992969     1.250258326    -4.225042041
  56    C       -0.760358505     2.911133701    -5.671492163
  57    H        0.094789667     3.369397564    -6.177666336
  58    H       -0.955406408     1.959850740    -6.178404993
  59    H       -1.642317640     3.540135601    -5.826229088
  60    C        0.742292507     1.754729661    -4.073428627
  61    H        1.674707413     2.296343725    -4.267109575
  62    H        0.834030830     1.298282652    -3.084485215
  63    H        0.676976144     0.932388225    -4.793389957
  64    N        0.083967496     2.920579221    -1.193007931


           Empirical Formula: C28 H30 N2 O4  =    64 atoms



      MOLECULAR POINT GROUP   :   C2  


                  EIGENVALUES  
 -37.80550 -37.79385 -31.95072 -31.94457 -31.35077 -31.34748 -31.00029 -30.93590
 -29.55142 -29.38782 -29.25699 -29.15598 -25.78304 -25.67129 -25.46656 -25.32992
 -24.08493 -24.00411 -23.87093 -23.81628 -23.69138 -23.54212 -22.15535 -21.89699
 -21.35821 -21.15333 -20.96927 -20.73061 -20.00835 -19.89244 -18.89888 -18.71394
 -17.79692 -17.68062 -17.05859 -16.85179 -16.71353 -16.61660 -16.26656 -16.03687
 -15.85214 -15.75515 -15.52312 -15.46252 -15.39045 -15.33891 -15.29616 -15.19322
 -15.11777 -15.03754 -14.66399 -14.63644 -14.56395 -14.55708 -14.40950 -14.40257
 -14.31458 -14.25959 -13.61211 -13.58866 -13.29936 -13.14149 -13.00151 -12.97710
 -12.88907 -12.85126 -12.52446 -12.45256 -12.42665 -12.37488 -12.09213 -11.84103
 -11.79161 -11.74425 -11.72384 -11.71176 -11.65853 -11.49584 -11.36764 -11.24283
 -11.00798 -10.98392 -10.42535 -10.40087  -9.85781  -9.85038  -9.56308  -9.55426
  -1.58312  -1.49589  -0.04124  -0.03462   0.12251   0.12764   0.73513   0.75432
   0.80826   0.85385   1.20401   1.21835   2.21743   2.23009   2.30224   2.32227
   2.54020   2.55581   3.55690   3.56597   3.75555   3.76743   3.84877   3.86491
   3.96171   3.97059   4.29497   4.30032   4.37051   4.37855   4.47924   4.48742
   4.54320   4.55634   4.77713   4.80083   4.81437   4.85282   4.85877   4.88309
   4.91506   4.92192   4.98559   4.99278   5.00238   5.05716   5.17794   5.18929
   5.19058   5.19547   5.69143   5.70072   5.82542   5.83136   5.84473   5.85964
   5.92144   5.92380   5.99907   6.01919   6.02536   6.08223   6.10553   6.11030
   6.12443   6.14404   6.15973   6.16219   6.16735   6.19780   6.22833   6.29236
   7.00656   7.05269   7.19346   7.31440   7.39358   7.42692


              NET ATOMIC CHARGES AND DIPOLE CONTRIBUTIONS

  ATOM NO.   TYPE          CHARGE      No. of ELECS.   s-Pop       p-Pop       
    1          C          -0.192456        4.1925     1.11744     3.07502
    2          C          -0.200524        4.2005     1.11647     3.08405
    3          H           0.187107        0.8129     0.81289
    4          H           0.184267        0.8157     0.81573
    5          C           0.559689        3.4403     1.09424     2.34607
    6          O          -0.389883        6.3899     1.87663     4.51325
    7          C           0.559207        3.4408     1.09420     2.34659
    8          O          -0.387485        6.3875     1.87668     4.51081
    9          C           0.159659        3.8403     1.05207     2.78827
   10          C          -0.004624        4.0046     1.08908     2.91554
   11          C          -0.183263        4.1833     1.08782     3.09545
   12          C          -0.168223        4.1682     1.08570     3.08252
   13          C          -0.143241        4.1432     1.08027     3.06297
   14          H           0.156491        0.8435     0.84351
   15          C          -0.139028        4.1390     1.08385     3.05518
   16          H           0.162751        0.8372     0.83725
   17          H           0.156536        0.8435     0.84346
   18          H           0.153780        0.8462     0.84622
   19          C           0.123980        3.8760     1.04863     2.82739
   20          C          -0.458196        4.4582     1.05817     3.40003
   21          H           0.148132        0.8519     0.85187
   22          H           0.155125        0.8449     0.84487
   23          H           0.151343        0.8487     0.84866
   24          C          -0.461373        4.4614     1.06079     3.40058
   25          H           0.145136        0.8549     0.85486
   26          H           0.149624        0.8504     0.85038
   27          H           0.146528        0.8535     0.85347
   28          C          -0.459441        4.4594     1.05894     3.40050
   29          H           0.153720        0.8463     0.84628
   30          H           0.150861        0.8491     0.84914
   31          H           0.151114        0.8489     0.84889
   32          N          -0.567444        5.5674     1.60460     3.96285
   33          C          -0.192320        4.1923     1.11736     3.07496
   34          C          -0.199867        4.1999     1.11643     3.08344
   35          H           0.187326        0.8127     0.81267
   36          H           0.183958        0.8160     0.81604
   37          C           0.560352        3.4396     1.09405     2.34560
   38          O          -0.389809        6.3898     1.87623     4.51358
   39          C           0.560023        3.4400     1.09411     2.34587
   40          O          -0.388374        6.3884     1.87663     4.51174
   41          C           0.160281        3.8397     1.05199     2.78773
   42          C          -0.005140        4.0051     1.08901     2.91613
   43          C          -0.183022        4.1830     1.08782     3.09520
   44          C          -0.168092        4.1681     1.08569     3.08240
   45          C          -0.143250        4.1432     1.08027     3.06298
   46          H           0.156593        0.8434     0.84341
   47          C          -0.139294        4.1393     1.08380     3.05549
   48          H           0.162631        0.8374     0.83737
   49          H           0.156469        0.8435     0.84353
   50          H           0.153707        0.8463     0.84629
   51          C           0.123824        3.8762     1.04867     2.82750
   52          C          -0.458217        4.4582     1.05825     3.39997
   53          H           0.148900        0.8511     0.85110
   54          H           0.154780        0.8452     0.84522
   55          H           0.150916        0.8491     0.84908
   56          C          -0.461519        4.4615     1.06082     3.40070
   57          H           0.145337        0.8547     0.85466
   58          H           0.149477        0.8505     0.85052
   59          H           0.146426        0.8536     0.85357
   60          C          -0.459032        4.4590     1.05903     3.40000
   61          H           0.154657        0.8453     0.84534
   62          H           0.151001        0.8490     0.84900
   63          H           0.149768        0.8502     0.85023
   64          N          -0.568361        5.5684     1.60421     3.96415
 DIPOLE           X         Y         Z       TOTAL
 POINT-CHG.     0.031    -0.042     1.573     1.573
 HYBRID        -0.006    -0.003     0.056     0.057
 SUM            0.025    -0.045     1.629     1.630


          ATOMIC ORBITAL ELECTRON POPULATIONS

     Atom    s        px        py        pz   
    1  C   1.11744   1.03335   1.02145   1.02023
    2  C   1.11647   1.02817   1.00707   1.04881
    3  H   0.81289
    4  H   0.81573
    5  C   1.09424   0.78838   0.77177   0.78593
    6  O   1.87663   1.28469   1.50255   1.72600
    7  C   1.09420   0.77160   0.75989   0.81510
    8  O   1.87668   1.31369   1.58383   1.61328
    9  C   1.05207   1.03644   0.83890   0.91293
   10  C   1.08908   0.95266   1.00145   0.96143
   11  C   1.08782   1.02182   0.98963   1.08399
   12  C   1.08570   1.01441   0.97872   1.08940
   13  C   1.08027   1.00702   1.05173   1.00423
   14  H   0.84351
   15  C   1.08385   0.99028   1.05034   1.01457
   16  H   0.83725
   17  H   0.84346
   18  H   0.84622
   19  C   1.04863   0.95887   0.93012   0.93839
   20  C   1.05817   1.08609   1.15425   1.15968
   21  H   0.85187
   22  H   0.84487
   23  H   0.84866
   24  C   1.06079   1.16694   1.18047   1.05316
   25  H   0.85486
   26  H   0.85038
   27  H   0.85347
   28  C   1.05894   1.09075   1.12560   1.18415
   29  H   0.84628
   30  H   0.84914
   31  H   0.84889
   32  N   1.60460   1.19519   1.40198   1.36567
   33  C   1.11736   1.03475   1.02379   1.01641
   34  C   1.11643   1.02519   1.00868   1.04957
   35  H   0.81267
   36  H   0.81604
   37  C   1.09405   0.78947   0.77486   0.78127
   38  O   1.87623   1.27956   1.50980   1.72422
   39  C   1.09411   0.76846   0.76244   0.81497
   40  O   1.87663   1.32589   1.59352   1.59233
   41  C   1.05199   1.03560   0.83550   0.91663
   42  C   1.08901   0.95306   1.00102   0.96205
   43  C   1.08782   1.02211   0.98978   1.08331
   44  C   1.08569   1.01507   0.97846   1.08887
   45  C   1.08027   1.00707   1.05062   1.00529
   46  H   0.84341
   47  C   1.08380   0.99048   1.05184   1.01317
   48  H   0.83737
   49  H   0.84353
   50  H   0.84629
   51  C   1.04867   0.95862   0.93096   0.93792
   52  C   1.05825   1.08680   1.15379   1.15938
   53  H   0.85110
   54  H   0.84522
   55  H   0.84908
   56  C   1.06082   1.16645   1.18009   1.05417
   57  H   0.85466
   58  H   0.85052
   59  H   0.85357
   60  C   1.05903   1.09187   1.12450   1.18363
   61  H   0.84534
   62  H   0.84900
   63  H   0.85023
   64  N   1.60421   1.20228   1.39160   1.37027

 **********************
 *                    *
 * JOB ENDED NORMALLY *
 *                    *
 **********************



 TOTAL JOB TIME:             0.25 SECONDS

 == MOPAC DONE ==
