 *******************************************************************************
 ** Site#: 36969        For non-commercial use only    Version 21.051W 64BITS **
 *******************************************************************************
 ** Cite this program as: MOPAC2016, Version: 21.051W, James J. P. Stewart,   **
 ** Stewart Computational Chemistry, web: HTTP://OpenMOPAC.net. Days left: 293**
 *******************************************************************************
 **                                                                           **
 **                                MOPAC2016                                  **
 **                                                                           **
 *******************************************************************************

                              PM7 CALCULATION RESULTS

 *******************************************************************************
 *  CALCULATION DONE:                                Mon May  3 16:56:57 2021  *
 *  PM7        - The PM7 Hamiltonian to be used
 *  LET        - OVERRIDE SOME SAFETY CHECKS
 *  FORCE      - FORCE CALCULATION SPECIFIED
 *  T=         - A TIME OF 172800.0 SECONDS REQUESTED
 *  DUMP=N     - RESTART FILE WRITTEN EVERY 7200.0 SECONDS REQUESTED
 *******************************************************************************
PM7 FORCE LET
 TS_FREQ

   ATOM   CHEMICAL          X               Y               Z
  NUMBER   SYMBOL      (ANGSTROMS)     (ANGSTROMS)     (ANGSTROMS)
 
     1       C         -0.69691000  *  -1.09558800  *   0.41154200  *
     2       C          0.62904900  *  -1.14771600  *   0.49815700  *
     3       H         -1.44732000  *  -0.88057200  *   1.15907600  *
     4       H          1.28402000  *  -0.99188200  *   1.35469500  *
     5       C          1.18316100  *  -1.93861700  *  -0.66354400  *
     6       O          2.31208800  *  -2.10774200  *  -1.02690700  *
     7       C         -1.14491600  *  -1.85889200  *  -0.81757900  *
     8       O         -2.22296800  *  -1.97426500  *  -1.32023200  *
     9       C          0.01201800  *  -3.80754200  *  -1.85276000  *
    10       C          0.15659900  *  -4.08969300  *  -3.22109300  *
    11       C         -0.16835800  *  -4.83293500  *  -0.90422700  *
    12       C          0.16952000  *  -5.44221100  *  -3.58845100  *
    13       C         -0.18074500  *  -6.15641200  *  -1.31169100  *
    14       H         -0.29690400  *  -4.58543200  *   0.15188900  *
    15       C         -0.00016200  *  -6.45563700  *  -2.66004300  *
    16       H          0.32703000  *  -5.71738200  *  -4.63609900  *
    17       H         -0.32686200  *  -6.95104700  *  -0.58155700  *
    18       H          0.00797400  *  -7.48515500  *  -2.98610900  *
    19       C          0.37140700  *  -3.06284100  *  -4.31764100  *
    20       C          1.89134800  *  -2.82815900  *  -4.36812200  *
    21       H          2.30352800  *  -2.58783200  *  -3.38025300  *
    22       H          2.39464000  *  -3.74223600  *  -4.71341900  *
    23       H          2.16174600  *  -2.01593000  *  -5.04665000  *
    24       C         -0.05450400  *  -3.61043400  *  -5.70065100  *
    25       H         -1.05780900  *  -4.04751300  *  -5.66089200  *
    26       H         -0.06639300  *  -2.80494300  *  -6.44189800  *
    27       H          0.64434800  *  -4.36946400  *  -6.06930200  *
    28       C         -0.46078200  *  -1.79979000  *  -4.06556100  *
    29       H         -1.45775900  *  -2.07927900  *  -3.69015000  *
    30       H          0.00022200  *  -1.14374400  *  -3.32189300  *
    31       H         -0.61339700  *  -1.20205700  *  -4.97098400  *
    32       N          0.03667300  *  -2.49598200  *  -1.29686300  *
    33       C          0.68801500  *   1.04723900  *   0.36143700  *
    34       C         -0.64409300  *   1.10331000  *   0.45691200  *
    35       H          1.45448000  *   0.77404000  *   1.08216900  *
    36       H         -1.30694200  *   0.88735000  *   1.28734300  *
    37       C         -1.18759000  *   1.93258300  *  -0.69097800  *
    38       O         -2.31573300  *   2.11268800  *  -1.04324100  *
    39       C          1.14368300  *   1.84576400  *  -0.83958200  *
    40       O          2.22178600  *   1.96146600  *  -1.34303900  *
    41       C         -0.01131500  *   3.81320900  *  -1.85781400  *
    42       C         -0.15475000  *   4.09898500  *  -3.22563000  *
    43       C          0.16797000  *   4.84719400  *  -0.91712500  *
    44       C         -0.16481700  *   5.44874900  *  -3.59495100  *
    45       C          0.18097100  *   6.17180100  *  -1.32984200  *
    46       H          0.29780000  *   4.62057100  *   0.14906000  *
    47       C          0.00165700  *   6.47135000  *  -2.67588000  *
    48       H         -0.32018500  *   5.71621700  *  -4.64034400  *
    49       H          0.32490300  *   6.97492500  *  -0.60945500  *
    50       H         -0.00971900  *   7.49193800  *  -3.01246000  *
    51       C         -0.37236300  *   3.07848400  *  -4.33394600  *
    52       C         -1.89213000  *   2.84263800  *  -4.38096200  *
    53       H         -2.30109600  *   2.61648100  *  -3.38860500  *
    54       H         -2.40204700  *   3.74704900  *  -4.73953100  *
    55       H         -2.15856500  *   2.02308400  *  -5.04854300  *
    56       C          0.05409100  *   3.62151100  *  -5.71912600  *
    57       H          1.05590100  *   4.05816000  *  -5.68196800  *
    58       H          0.06622800  *   2.81349300  *  -6.45436100  *
    59       H         -0.64428500  *   4.37381900  *  -6.10103400  *
    60       C          0.45836500  *   1.81384200  *  -4.07995000  *
    61       H          1.45411600  *   2.09265200  *  -3.70150000  *
    62       H         -0.01171400  *   1.16162700  *  -3.34075800  *
    63       H          0.60920200  *   1.21645300  *  -4.98227200  *
    64       N         -0.03923300  *   2.48695200  *  -1.32540500  *
 


          CARTESIAN COORDINATES 

    NO.       ATOM           X           Y           Z

     1         C         -0.6969     -1.0956      0.4115
     2         C          0.6290     -1.1477      0.4982
     3         H         -1.4473     -0.8806      1.1591
     4         H          1.2840     -0.9919      1.3547
     5         C          1.1832     -1.9386     -0.6635
     6         O          2.3121     -2.1077     -1.0269
     7         C         -1.1449     -1.8589     -0.8176
     8         O         -2.2230     -1.9743     -1.3202
     9         C          0.0120     -3.8075     -1.8528
    10         C          0.1566     -4.0897     -3.2211
    11         C         -0.1684     -4.8329     -0.9042
    12         C          0.1695     -5.4422     -3.5885
    13         C         -0.1807     -6.1564     -1.3117
    14         H         -0.2969     -4.5854      0.1519
    15         C         -0.0002     -6.4556     -2.6600
    16         H          0.3270     -5.7174     -4.6361
    17         H         -0.3269     -6.9510     -0.5816
    18         H          0.0080     -7.4852     -2.9861
    19         C          0.3714     -3.0628     -4.3176
    20         C          1.8913     -2.8282     -4.3681
    21         H          2.3035     -2.5878     -3.3803
    22         H          2.3946     -3.7422     -4.7134
    23         H          2.1617     -2.0159     -5.0466
    24         C         -0.0545     -3.6104     -5.7007
    25         H         -1.0578     -4.0475     -5.6609
    26         H         -0.0664     -2.8049     -6.4419
    27         H          0.6443     -4.3695     -6.0693
    28         C         -0.4608     -1.7998     -4.0656
    29         H         -1.4578     -2.0793     -3.6902
    30         H          0.0002     -1.1437     -3.3219
    31         H         -0.6134     -1.2021     -4.9710
    32         N          0.0367     -2.4960     -1.2969
    33         C          0.6880      1.0472      0.3614
    34         C         -0.6441      1.1033      0.4569
    35         H          1.4545      0.7740      1.0822
    36         H         -1.3069      0.8873      1.2873
    37         C         -1.1876      1.9326     -0.6910
    38         O         -2.3157      2.1127     -1.0432
    39         C          1.1437      1.8458     -0.8396
    40         O          2.2218      1.9615     -1.3430
    41         C         -0.0113      3.8132     -1.8578
    42         C         -0.1548      4.0990     -3.2256
    43         C          0.1680      4.8472     -0.9171
    44         C         -0.1648      5.4487     -3.5950
    45         C          0.1810      6.1718     -1.3298
    46         H          0.2978      4.6206      0.1491
    47         C          0.0017      6.4714     -2.6759
    48         H         -0.3202      5.7162     -4.6403
    49         H          0.3249      6.9749     -0.6095
    50         H         -0.0097      7.4919     -3.0125
    51         C         -0.3724      3.0785     -4.3339
    52         C         -1.8921      2.8426     -4.3810
    53         H         -2.3011      2.6165     -3.3886
    54         H         -2.4020      3.7470     -4.7395
    55         H         -2.1586      2.0231     -5.0485
    56         C          0.0541      3.6215     -5.7191
    57         H          1.0559      4.0582     -5.6820
    58         H          0.0662      2.8135     -6.4544
    59         H         -0.6443      4.3738     -6.1010
    60         C          0.4584      1.8138     -4.0800
    61         H          1.4541      2.0927     -3.7015
    62         H         -0.0117      1.1616     -3.3408
    63         H          0.6092      1.2165     -4.9823
    64         N         -0.0392      2.4870     -1.3254

 General Reference for PM7:
 "Optimization of Parameters for Semiempirical Methods VI: More Modifications to the 
 NDDO Approximations and Re-optimization of Parameters", J. J. P. Stewart, J. Mol. Mod., 1:32, 19 (2013)
 https://link.springer.com/article/10.1007/s00894-012-1667-x

           Empirical Formula: C28 H30 N2 O4  =    64 atoms



      MOLECULAR POINT GROUP   :   C2  


      RHF CALCULATION, NO. OF DOUBLY OCCUPIED LEVELS = 88



          HEAT OF FORMATION =     -32.174058 KCALS/MOLE


          CARTESIAN COORDINATE DERIVATIVES

   NUMBER  ATOM         X            Y            Z

     1       C     23.557606    12.422177   -66.420593
     2       C    -26.690592     0.815436   -68.459704
     3       H      2.376652     0.973395     0.441152
     4       H      1.647260     3.975261     2.082883
     5       C    -11.326752     6.499062    -0.784262
     6       O      6.335732    -6.531307    -0.617952
     7       C      6.696895     1.514275    -0.890401
     8       O     -1.460693    -4.740782     0.640770
     9       C     -0.186206     6.240509    -1.770344
    10       C      0.003177    -2.881141    -1.516217
    11       C     -0.021477     0.394971     1.269726
    12       C     -0.278595     2.075804     0.803980
    13       C      0.451490    -2.722229    -1.468575
    14       H     -0.275276     3.059279     0.230919
    15       C      0.368474    -1.857240    -2.096792
    16       H      0.290487    -2.011358    -1.284874
    17       H     -0.213233     0.883578     0.022553
    18       H     -0.163475     2.718557    -5.699913
    19       C      0.035374     1.044524     0.581412
    20       C      0.702921    -0.866344     1.476978
    21       H      0.682699    -1.055378     1.463582
    22       H     -2.230453    -1.596210     2.350315
    23       H      1.349525    -0.347383     0.839602
    24       C      1.096990    -0.864325     0.372869
    25       H      0.257940     0.565421     1.064650
    26       H      0.345799     0.967771     0.143514
    27       H      1.594834     0.935013     0.299272
    28       C     -1.298273    -0.896269    -0.440495
    29       H      0.047188    -0.140971     2.308057
    30       H     -0.963882     0.726690     0.596310
    31       H     -1.960394    -0.100880    -0.839816
    32       N     -0.076420     9.325741     2.378792
    33       C    -14.636631   -16.059734    62.601683
    34       C      9.654088   -21.062036    62.192603
    35       H      0.706770     2.002120     3.342683
    36       H      0.566785     2.168757     3.020209
    37       C      5.803240    -0.010697     0.902044
    38       O     -2.402532    -3.826873    -0.864800
    39       C     -1.876456     4.471377     2.737672
    40       O      1.706749    -5.553549    -2.380682
    41       C      0.503500     3.309124     2.734733
    42       C      0.058259     0.848787    -0.770999
    43       C     -0.520470    -1.569525    -2.929631
    44       C      0.990399     2.779888     0.749704
    45       C     -0.898848    -4.233040    -1.476425
    46       H      1.410081     6.667408     0.408557
    47       C     -0.608504    -0.672705    -2.970515
    48       H      0.080969     0.354231     1.862538
    49       H     -0.058897    -0.678796    -0.912856
    50       H      0.282895    -0.693271     9.327294
    51       C     -0.455993    -1.342698     0.371915
    52       C     -1.348367    -0.386506    -0.994830
    53       H     -0.411347    -0.198818    -2.029231
    54       H      1.498960    -0.894992    -2.193801
    55       H     -0.741692     1.044710    -2.023634
    56       C     -0.357171    -1.771914    -0.668945
    57       H     -0.873773     0.644030    -0.198579
    58       H     -0.498361     2.169705    -0.808426
    59       H     -1.217901    -0.049192     0.433200
    60       C      2.071785    -1.226951     1.232917
    61       H     -0.029162     0.906944    -2.374343
    62       H      0.724153     0.190648    -1.368044
    63       H      1.303467     0.913279     0.139794
    64       N     -1.121327     3.234640     5.830803
 


          GRADIENT NORM = 142.87110



 ** GRADIENT IS VERY LARGE, BUT SINCE "LET" IS USED, CALCULATION WILL CONTINUE


          TIME FOR SCF CALCULATION =    0.11

          TIME FOR DERIVATIVES     =    0.06

          MOLECULAR WEIGHT =  458.56



          ROTATIONAL CONSTANTS IN CM(-1)

          A =    0.00825543   B =    0.00260893   C =    0.00228044



           PRINCIPAL MOMENTS OF INERTIA IN UNITS OF 10**(-40)*GRAM-CM**2

          A =     3390.8334   B =    10729.5944   C =    12275.1548


          ORIENTATION OF MOLECULE IN FORCE CALCULATION

    NO.       ATOM         X         Y         Z

     1          C      -0.4826    2.2989    1.6876
     2          C       0.8472    2.2989    1.6876
     3          H      -1.1906    3.1156    1.6876
     4          H       1.5500    3.1314    1.6953
     5          C       1.3551    0.9584    2.1643
     6          O       2.4637    0.5050    2.1866
     7          C      -0.9794    0.9538    2.1753
     8          O      -2.0826    0.4976    2.2308
     9          C       0.1831   -0.5621    3.7747
    10          C       0.2492   -1.9644    3.7315
    11          C       0.1052    0.1344    4.9963
    12          C       0.2912   -2.6323    4.9630
    13          C       0.1182   -0.5644    6.1919
    14          H       0.0361    1.2245    5.0017
    15          C       0.2222   -1.9532    6.1679
    16          H       0.3908   -3.7221    4.9850
    17          H       0.0512   -0.0291    7.1378
    18          H       0.2494   -2.5066    7.0949
    19          C       0.3517   -2.8063    2.4730
    20          C       1.8548   -2.8844    2.1527
    21          H       2.3207   -1.8917    2.1209
    22          H       2.3699   -3.4570    2.9368
    23          H       2.0483   -3.3723    1.1948
    24          C      -0.1416   -4.2528    2.7149
    25          H      -1.1223   -4.2597    3.2022
    26          H      -0.2333   -4.7878    1.7643
    27          H       0.5610   -4.8231    3.3326
    28          C      -0.5112   -2.2264    1.3459
    29          H      -1.4698   -1.8714    1.7556
    30          H      -0.0288   -1.3784    0.8518
    31          H      -0.7457   -2.9609    0.5675
    32          N       0.1925    0.2776    2.6237
    33          C       0.8111    2.6662   -0.4812
    34          C      -0.5132    2.8444   -0.4435
    35          H       1.6330    3.2622   -0.0929
    36          H      -1.1116    3.6380   -0.0102
    37          C      -1.1624    1.9486   -1.4812
    38          O      -2.3173    1.7090   -1.6763
    39          C       1.1559    1.6573   -1.5541
    40          O       2.1935    1.1358   -1.8378
    41          C      -0.1392    1.1818   -3.6369
    42          C      -0.3825   -0.0742   -4.2171
    43          C       0.0603    2.3233   -4.4390
    44          C      -0.4695   -0.1230   -5.6129
    45          C      -0.0056    2.2252   -5.8214
    46          H       0.2681    3.3004   -3.9839
    47          C      -0.2838    0.9956   -6.4081
    48          H      -0.7030   -1.0692   -6.1016
    49          H       0.1534    3.1016   -6.4469
    50          H      -0.3570    0.9031   -7.4763
    51          C      -0.6317   -1.3734   -3.4641
    52          C      -2.1409   -1.3904   -3.1647
    53          H      -2.4752   -0.4556   -2.6983
    54          H      -2.7081   -1.5037   -4.0985
    55          H      -2.4179   -2.2126   -2.5047
    56          C      -0.3180   -2.6183   -4.3286
    57          H       0.6662   -2.5366   -4.7979
    58          H      -0.3221   -3.5188   -3.7099
    59          H      -1.0687   -2.7789   -5.1097
    60          C       0.2627   -1.4618   -2.2206
    61          H       1.2693   -1.0843   -2.4589
    62          H      -0.1323   -0.8674   -1.3940
    63          H       0.3778   -2.4839   -1.8520
    64          N      -0.0804    1.3966   -2.2250


    FIRST DERIVATIVES WILL BE USED IN THE CALCULATION OF SECOND DERIVATIVES

          ESTIMATED TIME TO COMPLETE CALCULATION =       63.00 SECONDS

    FOR POINT-GROUP C2   THERE ARE   2 UNIQUE SYMMETRY FUNCTIONS.

 STEP:   1 TIME =     0.21 SECS, INTEGRAL =      0.21 TIME LEFT: 172799.62
 STEP:   2 TIME =     0.24 SECS, INTEGRAL =      0.45 TIME LEFT: 172799.38
 STEP:   3 TIME =     0.20 SECS, INTEGRAL =      0.65 TIME LEFT: 172799.18
 STEP:   4 TIME =     0.23 SECS, INTEGRAL =      0.88 TIME LEFT: 172798.95
 STEP:   5 TIME =     0.24 SECS, INTEGRAL =      1.12 TIME LEFT: 172798.71
 STEP:   6 TIME =     0.23 SECS, INTEGRAL =      1.36 TIME LEFT: 172798.48
 STEP:   7 TIME =     0.17 SECS, INTEGRAL =      1.53 TIME LEFT: 172798.31
 STEP:   8 TIME =     0.17 SECS, INTEGRAL =      1.70 TIME LEFT: 172798.14
 STEP:   9 TIME =     0.19 SECS, INTEGRAL =      1.88 TIME LEFT: 172797.95
 STEP:  10 TIME =     0.21 SECS, INTEGRAL =      2.10 TIME LEFT: 172797.74
 STEP:  11 TIME =     0.20 SECS, INTEGRAL =      2.30 TIME LEFT: 172797.54
 STEP:  12 TIME =     0.20 SECS, INTEGRAL =      2.49 TIME LEFT: 172797.34
 STEP:  13 TIME =     0.23 SECS, INTEGRAL =      2.73 TIME LEFT: 172797.11
 STEP:  14 TIME =     0.24 SECS, INTEGRAL =      2.96 TIME LEFT: 172796.87
 STEP:  15 TIME =     0.24 SECS, INTEGRAL =      3.20 TIME LEFT: 172796.63
 STEP:  16 TIME =     0.22 SECS, INTEGRAL =      3.42 TIME LEFT: 172796.41
 STEP:  17 TIME =     0.23 SECS, INTEGRAL =      3.65 TIME LEFT: 172796.19
 STEP:  18 TIME =     0.21 SECS, INTEGRAL =      3.86 TIME LEFT: 172795.98
 STEP:  19 TIME =     0.24 SECS, INTEGRAL =      4.09 TIME LEFT: 172795.74
 STEP:  20 TIME =     0.20 SECS, INTEGRAL =      4.30 TIME LEFT: 172795.54
 STEP:  21 TIME =     0.23 SECS, INTEGRAL =      4.53 TIME LEFT: 172795.30
 STEP:  22 TIME =     0.23 SECS, INTEGRAL =      4.76 TIME LEFT: 172795.08
 STEP:  23 TIME =     0.23 SECS, INTEGRAL =      4.99 TIME LEFT: 172794.84
 STEP:  24 TIME =     0.20 SECS, INTEGRAL =      5.20 TIME LEFT: 172794.64
 STEP:  25 TIME =     0.20 SECS, INTEGRAL =      5.40 TIME LEFT: 172794.44
 STEP:  26 TIME =     0.22 SECS, INTEGRAL =      5.62 TIME LEFT: 172794.22
 STEP:  27 TIME =     0.26 SECS, INTEGRAL =      5.88 TIME LEFT: 172793.96
 STEP:  28 TIME =     0.21 SECS, INTEGRAL =      6.08 TIME LEFT: 172793.75
 STEP:  29 TIME =     0.24 SECS, INTEGRAL =      6.32 TIME LEFT: 172793.51
 STEP:  30 TIME =     0.23 SECS, INTEGRAL =      6.55 TIME LEFT: 172793.28
 STEP:  31 TIME =     0.24 SECS, INTEGRAL =      6.80 TIME LEFT: 172793.04
 STEP:  32 TIME =     0.21 SECS, INTEGRAL =      7.00 TIME LEFT: 172792.83
 STEP:  33 TIME =     0.25 SECS, INTEGRAL =      7.26 TIME LEFT: 172792.58
 STEP:  34 TIME =     0.18 SECS, INTEGRAL =      7.44 TIME LEFT: 172792.39
 STEP:  35 TIME =     0.21 SECS, INTEGRAL =      7.66 TIME LEFT: 172792.18
 STEP:  36 TIME =     0.23 SECS, INTEGRAL =      7.89 TIME LEFT: 172791.95
 STEP:  37 TIME =     0.21 SECS, INTEGRAL =      8.10 TIME LEFT: 172791.73
 STEP:  38 TIME =     0.27 SECS, INTEGRAL =      8.37 TIME LEFT: 172791.46
 STEP:  39 TIME =     0.22 SECS, INTEGRAL =      8.59 TIME LEFT: 172791.25
 STEP:  40 TIME =     0.21 SECS, INTEGRAL =      8.80 TIME LEFT: 172791.04
 STEP:  41 TIME =     0.19 SECS, INTEGRAL =      8.99 TIME LEFT: 172790.84
 STEP:  42 TIME =     0.21 SECS, INTEGRAL =      9.20 TIME LEFT: 172790.64
 STEP:  43 TIME =     0.20 SECS, INTEGRAL =      9.40 TIME LEFT: 172790.44
 STEP:  44 TIME =     0.25 SECS, INTEGRAL =      9.64 TIME LEFT: 172790.19
 STEP:  45 TIME =     0.20 SECS, INTEGRAL =      9.84 TIME LEFT: 172789.99
 STEP:  46 TIME =     0.18 SECS, INTEGRAL =     10.03 TIME LEFT: 172789.81
 STEP:  47 TIME =     0.19 SECS, INTEGRAL =     10.21 TIME LEFT: 172789.62
 STEP:  48 TIME =     0.21 SECS, INTEGRAL =     10.42 TIME LEFT: 172789.41
 STEP:  49 TIME =     0.21 SECS, INTEGRAL =     10.63 TIME LEFT: 172789.21
 STEP:  50 TIME =     0.21 SECS, INTEGRAL =     10.84 TIME LEFT: 172788.99
 STEP:  51 TIME =     0.21 SECS, INTEGRAL =     11.05 TIME LEFT: 172788.78
 STEP:  52 TIME =     0.20 SECS, INTEGRAL =     11.26 TIME LEFT: 172788.58
 STEP:  53 TIME =     0.23 SECS, INTEGRAL =     11.48 TIME LEFT: 172788.35
 STEP:  54 TIME =     0.19 SECS, INTEGRAL =     11.67 TIME LEFT: 172788.16
 STEP:  55 TIME =     0.20 SECS, INTEGRAL =     11.88 TIME LEFT: 172787.96
 STEP:  56 TIME =     0.21 SECS, INTEGRAL =     12.08 TIME LEFT: 172787.75
 STEP:  57 TIME =     0.21 SECS, INTEGRAL =     12.29 TIME LEFT: 172787.54
 STEP:  58 TIME =     0.21 SECS, INTEGRAL =     12.50 TIME LEFT: 172787.34
 STEP:  59 TIME =     0.21 SECS, INTEGRAL =     12.71 TIME LEFT: 172787.12
 STEP:  60 TIME =     0.21 SECS, INTEGRAL =     12.93 TIME LEFT: 172786.91
 STEP:  61 TIME =     0.23 SECS, INTEGRAL =     13.16 TIME LEFT: 172786.67
 STEP:  62 TIME =     0.22 SECS, INTEGRAL =     13.39 TIME LEFT: 172786.45
 STEP:  63 TIME =     0.19 SECS, INTEGRAL =     13.57 TIME LEFT: 172786.26
 STEP:  64 TIME =     0.15 SECS, INTEGRAL =     13.73 TIME LEFT: 172786.11
 STEP:  65 TIME =     0.20 SECS, INTEGRAL =     13.93 TIME LEFT: 172785.91
 STEP:  66 TIME =     0.20 SECS, INTEGRAL =     14.13 TIME LEFT: 172785.71
 STEP:  67 TIME =     0.21 SECS, INTEGRAL =     14.34 TIME LEFT: 172785.49
 STEP:  68 TIME =     0.18 SECS, INTEGRAL =     14.52 TIME LEFT: 172785.32
 STEP:  69 TIME =     0.20 SECS, INTEGRAL =     14.72 TIME LEFT: 172785.11
 STEP:  70 TIME =     0.20 SECS, INTEGRAL =     14.92 TIME LEFT: 172784.92
 STEP:  71 TIME =     0.20 SECS, INTEGRAL =     15.11 TIME LEFT: 172784.72
 STEP:  72 TIME =     0.20 SECS, INTEGRAL =     15.32 TIME LEFT: 172784.52
 STEP:  73 TIME =     0.20 SECS, INTEGRAL =     15.52 TIME LEFT: 172784.32
 STEP:  74 TIME =     0.16 SECS, INTEGRAL =     15.68 TIME LEFT: 172784.16
 STEP:  75 TIME =     0.18 SECS, INTEGRAL =     15.86 TIME LEFT: 172783.97
 STEP:  76 TIME =     0.20 SECS, INTEGRAL =     16.06 TIME LEFT: 172783.78
 STEP:  77 TIME =     0.19 SECS, INTEGRAL =     16.25 TIME LEFT: 172783.59
 STEP:  78 TIME =     0.23 SECS, INTEGRAL =     16.48 TIME LEFT: 172783.36
 STEP:  79 TIME =     0.18 SECS, INTEGRAL =     16.66 TIME LEFT: 172783.18
 STEP:  80 TIME =     0.21 SECS, INTEGRAL =     16.86 TIME LEFT: 172782.97
 STEP:  81 TIME =     0.20 SECS, INTEGRAL =     17.06 TIME LEFT: 172782.78
 STEP:  82 TIME =     0.21 SECS, INTEGRAL =     17.27 TIME LEFT: 172782.57
 STEP:  83 TIME =     0.22 SECS, INTEGRAL =     17.49 TIME LEFT: 172782.34
 STEP:  84 TIME =     0.23 SECS, INTEGRAL =     17.72 TIME LEFT: 172782.11
 STEP:  85 TIME =     0.23 SECS, INTEGRAL =     17.95 TIME LEFT: 172781.88
 STEP:  86 TIME =     0.20 SECS, INTEGRAL =     18.15 TIME LEFT: 172781.68
 STEP:  87 TIME =     0.15 SECS, INTEGRAL =     18.30 TIME LEFT: 172781.53
 STEP:  88 TIME =     0.18 SECS, INTEGRAL =     18.49 TIME LEFT: 172781.35
 STEP:  89 TIME =     0.21 SECS, INTEGRAL =     18.70 TIME LEFT: 172781.13
 STEP:  90 TIME =     0.20 SECS, INTEGRAL =     18.90 TIME LEFT: 172780.94
 STEP:  91 TIME =     0.22 SECS, INTEGRAL =     19.12 TIME LEFT: 172780.72
 STEP:  92 TIME =     0.23 SECS, INTEGRAL =     19.34 TIME LEFT: 172780.49
 STEP:  93 TIME =     0.17 SECS, INTEGRAL =     19.51 TIME LEFT: 172780.32
 STEP:  94 TIME =     0.22 SECS, INTEGRAL =     19.73 TIME LEFT: 172780.10
 STEP:  95 TIME =     0.18 SECS, INTEGRAL =     19.92 TIME LEFT: 172779.92
 STEP:  96 TIME =     0.18 SECS, INTEGRAL =     20.10 TIME LEFT: 172779.73
 STEP:  97                       INTEGRAL =     20.10 TIME LEFT: 172779.73
 STEP:  98                       INTEGRAL =     20.10 TIME LEFT: 172779.73
 STEP:  99                       INTEGRAL =     20.10 TIME LEFT: 172779.73
 STEP: 100                       INTEGRAL =     20.10 TIME LEFT: 172779.73
 STEP: 101                       INTEGRAL =     20.10 TIME LEFT: 172779.73
 STEP: 102                       INTEGRAL =     20.10 TIME LEFT: 172779.73
 STEP: 103                       INTEGRAL =     20.10 TIME LEFT: 172779.73
 STEP: 104                       INTEGRAL =     20.10 TIME LEFT: 172779.73
 STEP: 105                       INTEGRAL =     20.10 TIME LEFT: 172779.73
 STEP: 106                       INTEGRAL =     20.10 TIME LEFT: 172779.73
 STEP: 107                       INTEGRAL =     20.10 TIME LEFT: 172779.73
 STEP: 108                       INTEGRAL =     20.10 TIME LEFT: 172779.73
 STEP: 109                       INTEGRAL =     20.10 TIME LEFT: 172779.73
 STEP: 110                       INTEGRAL =     20.10 TIME LEFT: 172779.73
 STEP: 111                       INTEGRAL =     20.10 TIME LEFT: 172779.73
 STEP: 112                       INTEGRAL =     20.10 TIME LEFT: 172779.73
 STEP: 113                       INTEGRAL =     20.10 TIME LEFT: 172779.73
 STEP: 114                       INTEGRAL =     20.10 TIME LEFT: 172779.73
 STEP: 115                       INTEGRAL =     20.10 TIME LEFT: 172779.73
 STEP: 116                       INTEGRAL =     20.10 TIME LEFT: 172779.73
 STEP: 117                       INTEGRAL =     20.10 TIME LEFT: 172779.73
 STEP: 118                       INTEGRAL =     20.10 TIME LEFT: 172779.73
 STEP: 119                       INTEGRAL =     20.10 TIME LEFT: 172779.73
 STEP: 120                       INTEGRAL =     20.10 TIME LEFT: 172779.73
 STEP: 121                       INTEGRAL =     20.10 TIME LEFT: 172779.73
 STEP: 122                       INTEGRAL =     20.10 TIME LEFT: 172779.73
 STEP: 123                       INTEGRAL =     20.10 TIME LEFT: 172779.73
 STEP: 124                       INTEGRAL =     20.10 TIME LEFT: 172779.73
 STEP: 125                       INTEGRAL =     20.10 TIME LEFT: 172779.73
 STEP: 126                       INTEGRAL =     20.10 TIME LEFT: 172779.73
 STEP: 127                       INTEGRAL =     20.10 TIME LEFT: 172779.73
 STEP: 128                       INTEGRAL =     20.10 TIME LEFT: 172779.73
 STEP: 129                       INTEGRAL =     20.10 TIME LEFT: 172779.73
 STEP: 130                       INTEGRAL =     20.10 TIME LEFT: 172779.73
 STEP: 131                       INTEGRAL =     20.10 TIME LEFT: 172779.73
 STEP: 132                       INTEGRAL =     20.10 TIME LEFT: 172779.73
 STEP: 133                       INTEGRAL =     20.10 TIME LEFT: 172779.73
 STEP: 134                       INTEGRAL =     20.10 TIME LEFT: 172779.73
 STEP: 135                       INTEGRAL =     20.10 TIME LEFT: 172779.73
 STEP: 136                       INTEGRAL =     20.10 TIME LEFT: 172779.73
 STEP: 137                       INTEGRAL =     20.10 TIME LEFT: 172779.73
 STEP: 138                       INTEGRAL =     20.10 TIME LEFT: 172779.73
 STEP: 139                       INTEGRAL =     20.10 TIME LEFT: 172779.73
 STEP: 140                       INTEGRAL =     20.10 TIME LEFT: 172779.73
 STEP: 141                       INTEGRAL =     20.10 TIME LEFT: 172779.73
 STEP: 142                       INTEGRAL =     20.10 TIME LEFT: 172779.73
 STEP: 143                       INTEGRAL =     20.10 TIME LEFT: 172779.73
 STEP: 144                       INTEGRAL =     20.10 TIME LEFT: 172779.73
 STEP: 145                       INTEGRAL =     20.10 TIME LEFT: 172779.73
 STEP: 146                       INTEGRAL =     20.10 TIME LEFT: 172779.73
 STEP: 147                       INTEGRAL =     20.10 TIME LEFT: 172779.73
 STEP: 148                       INTEGRAL =     20.10 TIME LEFT: 172779.73
 STEP: 149                       INTEGRAL =     20.10 TIME LEFT: 172779.73
 STEP: 150                       INTEGRAL =     20.10 TIME LEFT: 172779.73
 STEP: 151                       INTEGRAL =     20.10 TIME LEFT: 172779.73
 STEP: 152                       INTEGRAL =     20.10 TIME LEFT: 172779.73
 STEP: 153                       INTEGRAL =     20.10 TIME LEFT: 172779.73
 STEP: 154                       INTEGRAL =     20.10 TIME LEFT: 172779.73
 STEP: 155                       INTEGRAL =     20.10 TIME LEFT: 172779.73
 STEP: 156                       INTEGRAL =     20.10 TIME LEFT: 172779.73
 STEP: 157                       INTEGRAL =     20.10 TIME LEFT: 172779.73
 STEP: 158                       INTEGRAL =     20.10 TIME LEFT: 172779.73
 STEP: 159                       INTEGRAL =     20.10 TIME LEFT: 172779.73
 STEP: 160                       INTEGRAL =     20.10 TIME LEFT: 172779.73
 STEP: 161                       INTEGRAL =     20.10 TIME LEFT: 172779.73
 STEP: 162                       INTEGRAL =     20.10 TIME LEFT: 172779.73
 STEP: 163                       INTEGRAL =     20.10 TIME LEFT: 172779.73
 STEP: 164                       INTEGRAL =     20.10 TIME LEFT: 172779.73
 STEP: 165                       INTEGRAL =     20.10 TIME LEFT: 172779.73
 STEP: 166                       INTEGRAL =     20.10 TIME LEFT: 172779.73
 STEP: 167                       INTEGRAL =     20.10 TIME LEFT: 172779.73
 STEP: 168                       INTEGRAL =     20.10 TIME LEFT: 172779.73
 STEP: 169                       INTEGRAL =     20.10 TIME LEFT: 172779.73
 STEP: 170                       INTEGRAL =     20.10 TIME LEFT: 172779.73
 STEP: 171                       INTEGRAL =     20.10 TIME LEFT: 172779.73
 STEP: 172                       INTEGRAL =     20.10 TIME LEFT: 172779.73
 STEP: 173                       INTEGRAL =     20.10 TIME LEFT: 172779.73
 STEP: 174                       INTEGRAL =     20.10 TIME LEFT: 172779.73
 STEP: 175                       INTEGRAL =     20.10 TIME LEFT: 172779.73
 STEP: 176                       INTEGRAL =     20.10 TIME LEFT: 172779.73
 STEP: 177                       INTEGRAL =     20.10 TIME LEFT: 172779.73
 STEP: 178                       INTEGRAL =     20.10 TIME LEFT: 172779.73
 STEP: 179                       INTEGRAL =     20.10 TIME LEFT: 172779.73
 STEP: 180                       INTEGRAL =     20.10 TIME LEFT: 172779.73
 STEP: 181                       INTEGRAL =     20.10 TIME LEFT: 172779.73
 STEP: 182                       INTEGRAL =     20.10 TIME LEFT: 172779.73
 STEP: 183                       INTEGRAL =     20.10 TIME LEFT: 172779.73
 STEP: 184                       INTEGRAL =     20.10 TIME LEFT: 172779.73
 STEP: 185                       INTEGRAL =     20.10 TIME LEFT: 172779.73
 STEP: 186                       INTEGRAL =     20.10 TIME LEFT: 172779.73
 STEP: 187                       INTEGRAL =     20.10 TIME LEFT: 172779.73
 STEP: 188                       INTEGRAL =     20.10 TIME LEFT: 172779.73
 STEP: 189                       INTEGRAL =     20.10 TIME LEFT: 172779.73
 STEP: 190                       INTEGRAL =     20.10 TIME LEFT: 172779.73
 STEP: 191                       INTEGRAL =     20.10 TIME LEFT: 172779.73
 STEP: 192                       INTEGRAL =     20.10 TIME LEFT: 172779.73

(To convert to Hartree/Bohr^2, multiply by (10^(-21) x N x a0^2)/(4.184 x 627.51) =  0.0642)


           FORCE MATRIX IN MILLIDYNES/ANGSTROM


                  C  1       C  2       H  3       H  4       C  5       O  6
 ------------------------------------------------------------------------------
     C    1  16.513382
     C    2  10.533845  16.517213
     H    3   3.479157   0.672948   4.298044
     H    4   0.673596   3.431141   0.038388   4.239131
     C    5   1.272609   2.817913   0.168412   0.613910  18.569413
     O    6   0.083053   1.052614   0.022778   0.042667  12.312391  14.327801
     C    7   2.728570   1.287089   0.623545   0.165370   1.915663   0.288211
     O    8   1.043933   0.083901   0.042855   0.022659   0.288228   0.102686
     C    9   0.107518   0.110154   0.015017   0.015046   0.759414   0.094420
     C   10   0.021762   0.020189   0.003388   0.003053   0.068366   0.017605
     C   11   0.007731   0.008588   0.002511   0.002313   0.081963   0.021408
     C   12   0.009111   0.009235   0.001508   0.001369   0.042017   0.014925
     C   13   0.008186   0.007997   0.002725   0.002468   0.037936   0.012950
     H   14   0.008145   0.008038   0.003502   0.003116   0.036967   0.011385
     C   15   0.005297   0.004920   0.001571   0.001414   0.034515   0.012287
     H   16   0.002198   0.002389   0.000848   0.000854   0.010768   0.004660
     H   17   0.002737   0.002747   0.001070   0.001013   0.010747   0.004206
     H   18   0.003068   0.003107   0.001218   0.001163   0.012619   0.004756
     C   19   0.009565   0.009637   0.002652   0.002550   0.056429   0.024398
     C   20   0.007309   0.011769   0.002635   0.002647   0.081519   0.059484
     H   21   0.004255   0.007965   0.001216   0.001188   0.072363   0.034389
     H   22   0.001567   0.002543   0.000690   0.000654   0.013160   0.008318
     H   23   0.001306   0.002461   0.000728   0.000708   0.014071   0.008090
     C   24   0.006641   0.006881   0.002698   0.002643   0.034713   0.015532
     H   25   0.001902   0.001782   0.000589   0.000645   0.008627   0.003558
     H   26   0.001542   0.001413   0.000624   0.000595   0.005845   0.002846
     H   27   0.001510   0.001675   0.000528   0.000564   0.006849   0.003428
     C   28   0.014567   0.010835   0.003908   0.003575   0.077521   0.033283
     H   29   0.007007   0.004510   0.001834   0.001664   0.028481   0.011773
     H   30   0.006081   0.004842   0.001851   0.001669   0.046144   0.014957
     H   31   0.002046   0.001648   0.000519   0.000380   0.009677   0.004307
     N   32   1.302536   1.327399   0.066569   0.065997   3.859533   1.734574
     C   33   0.661246   0.685984   0.064855   0.261904   0.096537   0.013396
     C   34   0.669186   0.662976   0.317874   0.050641   0.085237   0.016786
     H   35   0.078794   0.360508   0.018394   0.118005   0.030015   0.012012
     H   36   0.320460   0.063540   0.120409   0.013125   0.023885   0.006611
     C   37   0.091130   0.078525   0.023571   0.023601   0.075998   0.033112
     O   38   0.013758   0.016935   0.010079   0.006058   0.033928   0.012069
     C   39   0.073847   0.093135   0.024121   0.018633   0.173591   0.058424
     O   40   0.017286   0.012180   0.006735   0.007382   0.059329   0.030964
     C   41   0.007761   0.007915   0.003405   0.003177   0.014078   0.005150
     C   42   0.002737   0.002585   0.001142   0.001047   0.006492   0.002109


                  C  1       C  2       H  3       H  4       C  5       O  6
 ------------------------------------------------------------------------------
     C   43   0.001609   0.001507   0.000940   0.001118   0.003163   0.001393
     C   44   0.001745   0.001965   0.001151   0.001542   0.005370   0.001842
     C   45   0.001803   0.001888   0.001181   0.001107   0.003986   0.001429
     H   46   0.001328   0.001524   0.000802   0.001075   0.002460   0.000975
     C   47   0.001305   0.001529   0.000831   0.000900   0.003935   0.001350
     H   48   0.000684   0.000782   0.000420   0.000392   0.002483   0.000875
     H   49   0.000655   0.000786   0.000527   0.000595   0.001349   0.000768
     H   50   0.000676   0.000767   0.000366   0.000406   0.001989   0.000805
     C   51   0.002875   0.002627   0.001898   0.001353   0.007546   0.002537
     C   52   0.003850   0.002696   0.002243   0.001972   0.010048   0.003864
     H   53   0.001927   0.001315   0.000998   0.000626   0.004054   0.002114
     H   54   0.000705   0.000592   0.000447   0.000424   0.001332   0.000673
     H   55   0.001287   0.000896   0.000635   0.000591   0.004418   0.001439
     C   56   0.002363   0.002560   0.001608   0.001383   0.007069   0.002994
     H   57   0.000493   0.000536   0.000307   0.000317   0.001786   0.000875
     H   58   0.000601   0.000747   0.000434   0.000443   0.002079   0.000856
     H   59   0.000481   0.000488   0.000328   0.000269   0.001286   0.000631
     C   60   0.004979   0.005541   0.002670   0.002430   0.022502   0.009209
     H   61   0.001527   0.002280   0.000811   0.000938   0.008323   0.003945
     H   62   0.002425   0.002632   0.000994   0.000956   0.011581   0.004720
     H   63   0.001385   0.001607   0.000815   0.000603   0.006129   0.002849
     N   64   0.038922   0.039638   0.011380   0.010249   0.089656   0.035416


                  C  7       O  8       C  9       C 10       C 11       C 12
 ------------------------------------------------------------------------------
     C    7  18.649027
     O    8  12.509945  14.528856
     C    9   0.780060   0.091928  15.666720
     C   10   0.063134   0.015385   5.458337  15.196272
     C   11   0.080539   0.020492   5.267816   2.231905  15.228092
     C   12   0.039750   0.013676   2.289911   5.632444   1.715696  15.275654
     C   13   0.037131   0.012745   2.324471   1.689271   6.467017   2.430200
     H   14   0.041166   0.012997   0.735697   0.082185   3.441033   0.011746
     C   15   0.033655   0.012085   1.689117   2.322380   2.425313   6.398981
     H   16   0.009789   0.004068   0.092409   0.732143   0.014853   3.388335
     H   17   0.011204   0.004519   0.096053   0.009686   0.766001   0.087652
     H   18   0.012220   0.004649   0.011128   0.095812   0.090053   0.779617
     C   19   0.053410   0.022219   0.613189   3.099028   0.082835   0.756892
     C   20   0.048865   0.020739   0.040506   0.750698   0.013391   0.055519
     H   21   0.024220   0.011289   0.015402   0.054421   0.002375   0.008399
     H   22   0.009338   0.003691   0.005610   0.039600   0.002045   0.006720
     H   23   0.008471   0.003642   0.006672   0.043730   0.002772   0.004505
     C   24   0.034545   0.014629   0.050118   0.615552   0.016191   0.128751
     H   25   0.009950   0.005525   0.006495   0.026892   0.002832   0.019746
     H   26   0.006491   0.003252   0.007290   0.047305   0.001493   0.004928
     H   27   0.005909   0.002258   0.004989   0.012560   0.002668   0.046401
     C   28   0.093566   0.059978   0.029007   0.641569   0.006599   0.040264
     H   29   0.070370   0.031409   0.023427   0.046463   0.002468   0.008652
     H   30   0.058186   0.018840   0.026565   0.012871   0.002495   0.005412
     H   31   0.013812   0.007025   0.001682   0.042559   0.001799   0.005645
     N   32   3.810778   1.748018   4.842801   0.836158   1.221490   0.130021
     C   33   0.076752   0.016759   0.007367   0.002797   0.001402   0.001911
     C   34   0.092351   0.012478   0.007792   0.002814   0.001471   0.002137
     H   35   0.022911   0.007289   0.003600   0.001504   0.000911   0.000951
     H   36   0.020409   0.007542   0.003217   0.001427   0.000987   0.000992
     C   37   0.171742   0.059733   0.013012   0.005725   0.003563   0.005170
     O   38   0.059067   0.031098   0.004686   0.002396   0.001538   0.001878
     C   39   0.088202   0.038835   0.013020   0.005927   0.003227   0.004770
     O   40   0.038713   0.014243   0.004907   0.002702   0.001577   0.002180
     C   41   0.014016   0.005457   0.004255   0.002578   0.001337   0.001637
     C   42   0.005977   0.002546   0.002176   0.001373   0.001004   0.001052
     C   43   0.003014   0.001493   0.001285   0.000946   0.000701   0.000908
     C   44   0.005202   0.002143   0.001778   0.001172   0.000803   0.001296
     C   45   0.004007   0.001228   0.001293   0.000898   0.000594   0.000724
     H   46   0.002155   0.001042   0.000842   0.000366   0.000263   0.000411
     C   47   0.004121   0.001195   0.001877   0.001058   0.000740   0.000866
     H   48   0.002399   0.000998   0.001402   0.000538   0.000446   0.000337
     H   49   0.001803   0.000737   0.001034   0.000411   0.000164   0.000202
     H   50   0.002169   0.000799   0.001342   0.000496   0.000214   0.000167
     C   51   0.009609   0.004593   0.002172   0.001211   0.000847   0.001589
     C   52   0.015328   0.008169   0.003664   0.001832   0.001160   0.002036


                  C  7       O  8       C  9       C 10       C 11       C 12
 ------------------------------------------------------------------------------
     H   53   0.008549   0.004300   0.001889   0.000942   0.000423   0.000774
     H   54   0.001476   0.000696   0.000821   0.000247   0.000167   0.000289
     H   55   0.005412   0.003324   0.001099   0.000747   0.000488   0.000793
     C   56   0.007818   0.003761   0.002714   0.001334   0.001105   0.001357
     H   57   0.001995   0.000927   0.000520   0.000302   0.000194   0.000249
     H   58   0.002362   0.000975   0.001193   0.000609   0.000409   0.000665
     H   59   0.001189   0.000619   0.000623   0.000270   0.000252   0.000217
     C   60   0.021269   0.009150   0.006964   0.002935   0.001929   0.003653
     H   61   0.005547   0.002571   0.001780   0.000733   0.000544   0.000877
     H   62   0.011879   0.004633   0.003041   0.001364   0.000877   0.001582
     H   63   0.006220   0.002708   0.002273   0.001200   0.000716   0.001345
     N   64   0.098131   0.039314   0.010823   0.005346   0.002580   0.004537


                  C 13       H 14       C 15       H 16       H 17       H 18
 ------------------------------------------------------------------------------
     C   13  15.506454
     H   14   0.756978   4.352725
     C   15   6.084411   0.096262  15.542378
     H   16   0.093084   0.011250   0.783397   4.333150
     H   17   3.468957   0.035127   0.739523   0.008305   4.381029
     H   18   0.763979   0.008455   3.535242   0.037631   0.031573   4.470212
     C   19   0.011258   0.007592   0.085728   0.055003   0.012568   0.009422
     C   20   0.012991   0.003343   0.016296   0.015611   0.005674   0.003762
     H   21   0.004075   0.001777   0.002866   0.003601   0.001771   0.001486
     H   22   0.002481   0.001252   0.001732   0.007688   0.001621   0.001788
     H   23   0.000863   0.000361   0.003010   0.002888   0.000391   0.000558
     C   24   0.008524   0.003723   0.005838   0.115377   0.004026   0.005555
     H   25   0.002407   0.001317   0.000980   0.031841   0.001454   0.002004
     H   26   0.001033   0.000375   0.001259   0.003253   0.000556   0.000659
     H   27   0.001966   0.001399   0.001001   0.041224   0.001363   0.001981
     C   28   0.007802   0.003469   0.013148   0.011420   0.003603   0.003306
     H   29   0.003122   0.001529   0.002356   0.003073   0.001490   0.001354
     H   30   0.002470   0.001239   0.002249   0.001885   0.001081   0.001223
     H   31   0.000598   0.000594   0.001743   0.002098   0.000556   0.000576
     N   32   0.128646   0.064393   0.011110   0.018218   0.016666   0.019292
     C   33   0.001777   0.001365   0.001724   0.000959   0.000912   0.001023
     C   34   0.001911   0.001524   0.001947   0.000964   0.000985   0.001083
     H   35   0.001150   0.001065   0.000920   0.000432   0.000748   0.000668
     H   36   0.001251   0.001259   0.000935   0.000387   0.000749   0.000627
     C   37   0.003399   0.002625   0.004091   0.002535   0.001529   0.002086
     O   38   0.001491   0.001210   0.001682   0.001148   0.000964   0.001041
     C   39   0.003248   0.002533   0.003584   0.002455   0.001988   0.002155
     O   40   0.001488   0.001540   0.001674   0.001140   0.001024   0.000918
     C   41   0.001344   0.000870   0.001962   0.001313   0.001190   0.001222
     C   42   0.001106   0.000374   0.001097   0.000473   0.000572   0.000820
     C   43   0.000674   0.000415   0.000659   0.000752   0.000228   0.000282
     C   44   0.000966   0.000532   0.001008   0.000445   0.000175   0.000423
     C   45   0.000647   0.000332   0.000787   0.000373   0.000449   0.000630
     H   46   0.000229   0.000269   0.000198   0.000195   0.000253   0.000155
     C   47   0.000747   0.000463   0.001005   0.000336   0.000389   0.000562
     H   48   0.000322   0.000138   0.000365   0.000272   0.000145   0.000328
     H   49   0.000348   0.000150   0.000302   0.000083   0.000355   0.000302
     H   50   0.000310   0.000174   0.000379   0.000195   0.000274   0.000372
     C   51   0.001064   0.000661   0.000690   0.000662   0.000819   0.000829
     C   52   0.001362   0.000932   0.001108   0.001011   0.001039   0.000892
     H   53   0.000410   0.000239   0.000498   0.000484   0.000273   0.000285
     H   54   0.000378   0.000263   0.000284   0.000231   0.000306   0.000276
     H   55   0.000472   0.000428   0.000327   0.000326   0.000458   0.000361
     C   56   0.001088   0.000813   0.000716   0.000780   0.001057   0.000745
     H   57   0.000221   0.000158   0.000186   0.000175   0.000197   0.000177
     H   58   0.000342   0.000334   0.000254   0.000350   0.000321   0.000219


                  C 13       H 14       C 15       H 16       H 17       H 18
 ------------------------------------------------------------------------------
     H   59   0.000237   0.000241   0.000220   0.000151   0.000293   0.000242
     C   60   0.001654   0.001432   0.001619   0.001341   0.001599   0.001264
     H   61   0.000376   0.000376   0.000368   0.000373   0.000377   0.000244
     H   62   0.000860   0.000548   0.000899   0.000604   0.000641   0.000628
     H   63   0.000579   0.000521   0.000458   0.000568   0.000534   0.000339
     N   64   0.002866   0.002091   0.003655   0.002588   0.001707   0.002133


                  C 19       C 20       H 21       H 22       H 23       C 24
 ------------------------------------------------------------------------------
     C   19  12.865580
     C   20   2.774397  11.189635
     H   21   0.657122   3.415315   4.204386
     H   22   0.697824   3.403110   0.461452   4.203942
     H   23   0.674414   3.461489   0.462796   0.464314   4.238715
     C   24   2.625706   0.751931   0.044614   0.033193   0.012019  11.234334
     H   25   0.663843   0.045778   0.007831   0.003078   0.002158   3.439474
     H   26   0.680715   0.012091   0.002591   0.006546   0.013252   3.440576
     H   27   0.657249   0.035202   0.003911   0.030413   0.008911   3.413847
     C   28   2.910006   0.607864   0.015466   0.045503   0.012950   0.761146
     H   29   0.703481   0.042939   0.003383   0.007633   0.002680   0.013698
     H   30   0.672750   0.011667   0.013097   0.002799   0.010519   0.043153
     H   31   0.663559   0.013270   0.004179   0.001737   0.009007   0.046718
     N   32   0.073451   0.068244   0.037921   0.009834   0.011862   0.036721
     C   33   0.003124   0.004162   0.002063   0.000745   0.001625   0.002390
     C   34   0.003163   0.003393   0.001843   0.000664   0.000993   0.002517
     H   35   0.001979   0.002401   0.000957   0.000483   0.000683   0.001353
     H   36   0.001877   0.002310   0.000824   0.000498   0.000571   0.001349
     C   37   0.008541   0.010324   0.004572   0.001342   0.004248   0.007598
     O   38   0.003442   0.004317   0.002445   0.000676   0.001705   0.003677
     C   39   0.010336   0.015804   0.009189   0.001421   0.006357   0.007860
     O   40   0.005441   0.008944   0.004958   0.000879   0.004292   0.004230
     C   41   0.002076   0.003922   0.001986   0.000928   0.001032   0.002592
     C   42   0.001321   0.001616   0.001063   0.000201   0.000415   0.001196
     C   43   0.001028   0.001009   0.000561   0.000257   0.000509   0.000975
     C   44   0.001446   0.001840   0.000932   0.000321   0.000577   0.001441
     C   45   0.000991   0.001306   0.000608   0.000454   0.000350   0.001055
     H   46   0.000791   0.000838   0.000296   0.000166   0.000291   0.000624
     C   47   0.000926   0.001059   0.000721   0.000254   0.000387   0.000707
     H   48   0.000591   0.000854   0.000408   0.000244   0.000261   0.000718
     H   49   0.000834   0.000981   0.000243   0.000260   0.000252   0.000704
     H   50   0.000670   0.000818   0.000331   0.000230   0.000249   0.000629
     C   51   0.003760   0.004598   0.001413   0.000517   0.002055   0.003564
     C   52   0.004638   0.004328   0.001647   0.001023   0.001738   0.004678
     H   53   0.001593   0.001636   0.000709   0.000322   0.000738   0.001606
     H   54   0.000783   0.000934   0.000348   0.000323   0.000203   0.000842
     H   55   0.002318   0.001806   0.000658   0.000346   0.000675   0.002581
     C   56   0.003448   0.004529   0.001655   0.000840   0.002537   0.004133
     H   57   0.000831   0.001072   0.000293   0.000238   0.000749   0.000920
     H   58   0.001569   0.002098   0.000733   0.000306   0.001033   0.002042
     H   59   0.000758   0.001021   0.000280   0.000262   0.000411   0.000895
     C   60   0.012290   0.016221   0.005833   0.001579   0.007461   0.010188
     H   61   0.003072   0.005453   0.001994   0.000631   0.002503   0.002329
     H   62   0.005355   0.006408   0.002167   0.000580   0.002748   0.004429
     H   63   0.005626   0.006973   0.002283   0.000861   0.003567   0.004681
     N   64   0.008079   0.011511   0.005922   0.001525   0.004254   0.006279


                  H 25       H 26       H 27       C 28       H 29       H 30
 ------------------------------------------------------------------------------
     H   25   4.220955
     H   26   0.463944   4.228801
     H   27   0.464041   0.467872   4.196713
     C   28   0.012367   0.041185   0.043826  11.273170
     H   29   0.011586   0.006863   0.001518   3.388834   4.183884
     H   30   0.001865   0.003623   0.007565   3.432227   0.461982   4.234982
     H   31   0.009107   0.034829   0.003431   3.424906   0.462382   0.468181
     N   32   0.009265   0.007059   0.006966   0.189778   0.033200   0.051701
     C   33   0.000594   0.000817   0.000486   0.006055   0.002292   0.002805
     C   34   0.000690   0.000814   0.000531   0.005413   0.002021   0.002476
     H   35   0.000316   0.000441   0.000366   0.002778   0.000887   0.001102
     H   36   0.000389   0.000368   0.000317   0.002904   0.001106   0.001034
     C   37   0.002103   0.002283   0.001297   0.023208   0.008493   0.012207
     O   38   0.001424   0.001104   0.000688   0.010082   0.004448   0.005467
     C   39   0.002400   0.002341   0.001045   0.022225   0.005895   0.012554
     O   40   0.001393   0.001072   0.000701   0.009748   0.002700   0.005097
     C   41   0.000549   0.001140   0.000770   0.006918   0.001937   0.003281
     C   42   0.000278   0.000423   0.000335   0.002711   0.000472   0.001305
     C   43   0.000261   0.000628   0.000269   0.002207   0.000672   0.001050
     C   44   0.000346   0.000689   0.000250   0.003076   0.000585   0.001352
     C   45   0.000317   0.000297   0.000337   0.001494   0.000419   0.000854
     H   46   0.000110   0.000266   0.000171   0.001113   0.000271   0.000496
     C   47   0.000316   0.000398   0.000286   0.001326   0.000400   0.000852
     H   48   0.000191   0.000343   0.000114   0.001310   0.000363   0.000709
     H   49   0.000156   0.000186   0.000192   0.001377   0.000252   0.000617
     H   50   0.000159   0.000143   0.000225   0.001249   0.000281   0.000700
     C   51   0.000740   0.001515   0.000627   0.012013   0.002703   0.004976
     C   52   0.001030   0.002290   0.000976   0.015915   0.005433   0.006379
     H   53   0.000317   0.000791   0.000362   0.005755   0.002058   0.002314
     H   54   0.000231   0.000427   0.000269   0.001558   0.000536   0.000664
     H   55   0.000784   0.001145   0.000361   0.007240   0.002497   0.002836
     C   56   0.000901   0.002137   0.000908   0.010484   0.002372   0.004568
     H   57   0.000251   0.000448   0.000299   0.002220   0.000561   0.000981
     H   58   0.000403   0.001223   0.000384   0.004249   0.000928   0.001608
     H   59   0.000302   0.000315   0.000276   0.001396   0.000323   0.000232
     C   60   0.002039   0.004419   0.001239   0.041159   0.007175   0.012724
     H   61   0.000594   0.000880   0.000323   0.007401   0.001194   0.004413
     H   62   0.000835   0.001567   0.000352   0.012450   0.004180   0.014382
     H   63   0.000850   0.002102   0.000864   0.013576   0.003024   0.008166
     N   64   0.001572   0.002113   0.001165   0.021981   0.006800   0.010972


                  H 31       N 32       C 33       C 34       H 35       H 36
 ------------------------------------------------------------------------------
     H   31   4.208949
     N   32   0.010858  15.080572
     C   33   0.001644   0.038689  16.513382
     C   34   0.001673   0.040031  10.533845  16.517213
     H   35   0.000746   0.014496   3.479157   0.672948   4.298044
     H   36   0.000640   0.011176   0.673596   3.431141   0.038388   4.239131
     C   37   0.006530   0.091705   1.272609   2.817913   0.168412   0.613910
     O   38   0.003400   0.036981   0.083053   1.052614   0.022778   0.042667
     C   39   0.006298   0.099277   2.728570   1.287089   0.623545   0.165370
     O   40   0.002926   0.039076   1.043933   0.083901   0.042855   0.022659
     C   41   0.001889   0.011800   0.107518   0.110154   0.015017   0.015046
     C   42   0.001096   0.004953   0.021762   0.020189   0.003388   0.003053
     C   43   0.000906   0.003125   0.007731   0.008588   0.002511   0.002313
     C   44   0.001036   0.004450   0.009111   0.009235   0.001508   0.001369
     C   45   0.000469   0.002879   0.008186   0.007997   0.002725   0.002468
     H   46   0.000557   0.002157   0.008145   0.008038   0.003502   0.003116
     C   47   0.000369   0.003294   0.005297   0.004920   0.001571   0.001414
     H   48   0.000559   0.002784   0.002198   0.002389   0.000848   0.000854
     H   49   0.000455   0.001769   0.002737   0.002747   0.001070   0.001013
     H   50   0.000328   0.002382   0.003068   0.003107   0.001218   0.001163
     C   51   0.005373   0.007700   0.009565   0.009637   0.002652   0.002550
     C   52   0.006930   0.011288   0.007309   0.011769   0.002635   0.002647
     H   53   0.002346   0.005894   0.004255   0.007965   0.001216   0.001188
     H   54   0.000887   0.001381   0.001567   0.002543   0.000690   0.000654
     H   55   0.003381   0.004404   0.001306   0.002461   0.000728   0.000708
     C   56   0.004669   0.006864   0.006641   0.006881   0.002698   0.002643
     H   57   0.000834   0.001666   0.001902   0.001782   0.000589   0.000645
     H   58   0.001968   0.002240   0.001542   0.001413   0.000624   0.000595
     H   59   0.000725   0.001240   0.001510   0.001675   0.000528   0.000564
     C   60   0.013818   0.021766   0.014567   0.010835   0.003908   0.003575
     H   61   0.003126   0.006882   0.007007   0.004510   0.001834   0.001664
     H   62   0.008256   0.010797   0.006081   0.004842   0.001851   0.001669
     H   63   0.008001   0.006917   0.002046   0.001648   0.000519   0.000380
     N   64   0.006489   0.080640   1.302536   1.327399   0.066569   0.065997


                  C 37       O 38       C 39       O 40       C 41       C 42
 ------------------------------------------------------------------------------
     C   37  18.569413
     O   38  12.312391  14.327801
     C   39   1.915663   0.288211  18.649027
     O   40   0.288228   0.102686  12.509945  14.528856
     C   41   0.759414   0.094420   0.780060   0.091928  15.666720
     C   42   0.068366   0.017605   0.063134   0.015385   5.458337  15.196272
     C   43   0.081963   0.021408   0.080539   0.020492   5.267816   2.231905
     C   44   0.042017   0.014925   0.039750   0.013676   2.289911   5.632444
     C   45   0.037936   0.012950   0.037131   0.012745   2.324471   1.689271
     H   46   0.036967   0.011385   0.041166   0.012997   0.735697   0.082185
     C   47   0.034515   0.012287   0.033655   0.012085   1.689117   2.322380
     H   48   0.010768   0.004660   0.009789   0.004068   0.092409   0.732143
     H   49   0.010747   0.004206   0.011204   0.004519   0.096053   0.009686
     H   50   0.012619   0.004756   0.012220   0.004649   0.011128   0.095812
     C   51   0.056429   0.024398   0.053410   0.022219   0.613189   3.099028
     C   52   0.081519   0.059484   0.048865   0.020739   0.040506   0.750698
     H   53   0.072363   0.034389   0.024220   0.011289   0.015402   0.054421
     H   54   0.013160   0.008318   0.009338   0.003691   0.005610   0.039600
     H   55   0.014071   0.008090   0.008471   0.003642   0.006672   0.043730
     C   56   0.034713   0.015532   0.034545   0.014629   0.050118   0.615552
     H   57   0.008627   0.003558   0.009950   0.005525   0.006495   0.026892
     H   58   0.005845   0.002846   0.006491   0.003252   0.007290   0.047305
     H   59   0.006849   0.003428   0.005909   0.002258   0.004989   0.012560
     C   60   0.077521   0.033283   0.093566   0.059978   0.029007   0.641569
     H   61   0.028481   0.011773   0.070370   0.031409   0.023427   0.046463
     H   62   0.046144   0.014957   0.058186   0.018840   0.026565   0.012871
     H   63   0.009677   0.004307   0.013812   0.007025   0.001682   0.042559
     N   64   3.859533   1.734574   3.810778   1.748018   4.842801   0.836158


                  C 43       C 44       C 45       H 46       C 47       H 48
 ------------------------------------------------------------------------------
     C   43  15.228092
     C   44   1.715696  15.275654
     C   45   6.467017   2.430200  15.506454
     H   46   3.441033   0.011746   0.756978   4.352725
     C   47   2.425313   6.398981   6.084411   0.096262  15.542378
     H   48   0.014853   3.388335   0.093084   0.011250   0.783397   4.333150
     H   49   0.766001   0.087652   3.468957   0.035127   0.739523   0.008305
     H   50   0.090053   0.779617   0.763979   0.008455   3.535242   0.037631
     C   51   0.082835   0.756892   0.011258   0.007592   0.085728   0.055003
     C   52   0.013391   0.055519   0.012991   0.003343   0.016296   0.015611
     H   53   0.002375   0.008399   0.004075   0.001777   0.002866   0.003601
     H   54   0.002045   0.006720   0.002481   0.001252   0.001732   0.007688
     H   55   0.002772   0.004505   0.000863   0.000361   0.003010   0.002888
     C   56   0.016191   0.128751   0.008524   0.003723   0.005838   0.115377
     H   57   0.002832   0.019746   0.002407   0.001317   0.000980   0.031841
     H   58   0.001493   0.004928   0.001033   0.000375   0.001259   0.003253
     H   59   0.002668   0.046401   0.001966   0.001399   0.001001   0.041224
     C   60   0.006599   0.040264   0.007802   0.003469   0.013148   0.011420
     H   61   0.002468   0.008652   0.003122   0.001529   0.002356   0.003073
     H   62   0.002495   0.005412   0.002470   0.001239   0.002249   0.001885
     H   63   0.001799   0.005645   0.000598   0.000594   0.001743   0.002098
     N   64   1.221490   0.130021   0.128646   0.064393   0.011110   0.018218


                  H 49       H 50       C 51       C 52       H 53       H 54
 ------------------------------------------------------------------------------
     H   49   4.381029
     H   50   0.031573   4.470212
     C   51   0.012568   0.009422  12.865580
     C   52   0.005674   0.003762   2.774397  11.189635
     H   53   0.001771   0.001486   0.657122   3.415315   4.204386
     H   54   0.001621   0.001788   0.697824   3.403110   0.461452   4.203942
     H   55   0.000391   0.000558   0.674414   3.461489   0.462796   0.464314
     C   56   0.004026   0.005555   2.625706   0.751931   0.044614   0.033193
     H   57   0.001454   0.002004   0.663843   0.045778   0.007831   0.003078
     H   58   0.000556   0.000659   0.680715   0.012091   0.002591   0.006546
     H   59   0.001363   0.001981   0.657249   0.035202   0.003911   0.030413
     C   60   0.003603   0.003306   2.910006   0.607864   0.015466   0.045503
     H   61   0.001490   0.001354   0.703481   0.042939   0.003383   0.007633
     H   62   0.001081   0.001223   0.672750   0.011667   0.013097   0.002799
     H   63   0.000556   0.000576   0.663559   0.013270   0.004179   0.001737
     N   64   0.016666   0.019292   0.073451   0.068244   0.037921   0.009834


                  H 55       C 56       H 57       H 58       H 59       C 60
 ------------------------------------------------------------------------------
     H   55   4.238715
     C   56   0.012019  11.234334
     H   57   0.002158   3.439474   4.220955
     H   58   0.013252   3.440576   0.463944   4.228801
     H   59   0.008911   3.413847   0.464041   0.467872   4.196713
     C   60   0.012950   0.761146   0.012367   0.041185   0.043826  11.273170
     H   61   0.002680   0.013698   0.011586   0.006863   0.001518   3.388834
     H   62   0.010519   0.043153   0.001865   0.003623   0.007565   3.432227
     H   63   0.009007   0.046718   0.009107   0.034829   0.003431   3.424906
     N   64   0.011862   0.036721   0.009265   0.007059   0.006966   0.189778


                  H 61       H 62       H 63       N 64
 ------------------------------------------------------
     H   61   4.183884
     H   62   0.461982   4.234982
     H   63   0.462382   0.468181   4.208949
     N   64   0.033200   0.051701   0.010858  15.080572


          HEAT OF FORMATION =     -32.174058 KCALS/MOLE

          ZERO POINT ENERGY     310.679 KCAL/MOL

         NOTE: SYSTEM IS NOT A GROUND STATE, THEREFORE ZERO POINT
         ENERGY IS NOT MEANINGFULL. ZERO POINT ENERGY PRINTED
         DOES NOT INCLUDE THE  4 IMAGINARY FREQUENCIES


           NORMAL COORDINATE ANALYSIS (Total motion = 1 Angstrom)


   Root No.       1         2         3         4         5         6         7         8

                 1 A       1 B       2 A       2 B       3 A       3 B       4 A       4 B   

                -167.8    -139.1     -47.1     -24.1       6.5      13.9      19.7      28.6
  
           1   -0.0454   -0.0030    0.0090   -0.0096    0.0003   -0.0030   -0.0017    0.0012
           2   -0.0150   -0.0362   -0.0082   -0.0025    0.0059    0.0024   -0.0000   -0.0018
           3   -0.0096   -0.0475   -0.0111    0.0034    0.0015   -0.0061    0.0024   -0.0060
           4   -0.0454   -0.0031    0.0090   -0.0096    0.0003   -0.0030   -0.0017    0.0012
           5    0.0170   -0.0338    0.0061    0.0027    0.0054   -0.0005   -0.0025    0.0020
           6    0.0087   -0.0449    0.0094    0.0035    0.0011   -0.0086   -0.0021   -0.0045
           7   -0.0693   -0.0100    0.0009   -0.0127    0.0007   -0.0023   -0.0007   -0.0018
           8   -0.0356   -0.0416   -0.0147   -0.0052    0.0063    0.0030    0.0008   -0.0043
           9   -0.0308   -0.0633   -0.0168    0.0046    0.0021   -0.0121    0.0020   -0.0109
          10   -0.0649   -0.0004    0.0014   -0.0126    0.0006   -0.0008   -0.0002   -0.0003
          11    0.0336   -0.0357    0.0121    0.0053    0.0052   -0.0023   -0.0037    0.0031
          12    0.0212   -0.0536    0.0152    0.0060    0.0015   -0.0136   -0.0051   -0.0083
          13   -0.0189   -0.0012    0.0146   -0.0046   -0.0001   -0.0050   -0.0023    0.0042
          14    0.0205   -0.0196    0.0101    0.0027    0.0048    0.0020   -0.0016    0.0063
          15    0.0030   -0.0107    0.0135   -0.0020   -0.0004    0.0010    0.0018    0.0050
          16   -0.0140    0.0006    0.0170   -0.0034    0.0002   -0.0062   -0.0028    0.0056
          17    0.0316   -0.0148    0.0165    0.0057    0.0052   -0.0009   -0.0028    0.0098
          18   -0.0049    0.0017    0.0230   -0.0048   -0.0002    0.0012    0.0003    0.0091
          19   -0.0186   -0.0014    0.0146   -0.0047   -0.0001   -0.0048   -0.0021    0.0044
          20   -0.0183   -0.0222   -0.0121   -0.0054    0.0055    0.0076    0.0023    0.0001
          21   -0.0016   -0.0114   -0.0149    0.0006   -0.0001    0.0071    0.0083    0.0024
          22   -0.0133   -0.0025    0.0166   -0.0035   -0.0003   -0.0055   -0.0021    0.0053
          23   -0.0297   -0.0179   -0.0185   -0.0080    0.0061    0.0100    0.0028   -0.0019
          24    0.0058    0.0028   -0.0255    0.0016    0.0003    0.0135    0.0119    0.0049
          25    0.0017   -0.0002    0.0072    0.0041   -0.0007   -0.0020   -0.0015    0.0045
          26    0.0003   -0.0038   -0.0004   -0.0015   -0.0011    0.0041   -0.0012    0.0030
          27    0.0000    0.0064   -0.0003   -0.0020   -0.0058    0.0062    0.0055    0.0053
          28    0.0029   -0.0002    0.0014    0.0033   -0.0026    0.0041    0.0050   -0.0032
          29    0.0004   -0.0035   -0.0008   -0.0015   -0.0011    0.0047   -0.0007    0.0026
          30   -0.0005    0.0067    0.0007   -0.0001   -0.0122   -0.0012    0.0008    0.0004
          31    0.0046    0.0003    0.0037    0.0130    0.0000   -0.0021   -0.0099    0.0085
          32    0.0000   -0.0009    0.0006    0.0006   -0.0066   -0.0026   -0.0061   -0.0007
          33    0.0004    0.0046   -0.0012   -0.0026   -0.0027    0.0101    0.0078    0.0075
          34    0.0049   -0.0002   -0.0114    0.0146   -0.0040    0.0145    0.0008   -0.0108
          35    0.0002   -0.0019   -0.0005    0.0006   -0.0067   -0.0013   -0.0052   -0.0020
          36   -0.0006    0.0074    0.0012    0.0007   -0.0153   -0.0047   -0.0014   -0.0021
          37    0.0067    0.0007   -0.0077    0.0238   -0.0013    0.0069   -0.0139    0.0023
          38   -0.0002    0.0004    0.0010    0.0027   -0.0121   -0.0086   -0.0105   -0.0051
          39    0.0002    0.0053   -0.0007   -0.0015   -0.0059    0.0064    0.0053    0.0051
          40    0.0042    0.0005    0.0094    0.0120    0.0015   -0.0084   -0.0136    0.0157
          41   -0.0000   -0.0009    0.0010    0.0005   -0.0065   -0.0030   -0.0063   -0.0002
          42    0.0008    0.0023   -0.0020   -0.0038    0.0022    0.0155    0.0114    0.0111
          43    0.0064    0.0003   -0.0164    0.0255   -0.0035    0.0165   -0.0092   -0.0086
          44   -0.0002    0.0003    0.0004    0.0028   -0.0121   -0.0078   -0.0101   -0.0057
          45   -0.0003    0.0063    0.0005    0.0001   -0.0122   -0.0010    0.0007    0.0003
          46    0.0052   -0.0006   -0.0179    0.0155   -0.0058    0.0215    0.0049   -0.0189
          47    0.0002   -0.0018   -0.0010    0.0007   -0.0070   -0.0008   -0.0049   -0.0028
          48   -0.0009    0.0089    0.0028    0.0017   -0.0200   -0.0111   -0.0051   -0.0050
          49    0.0083    0.0012   -0.0106    0.0312   -0.0008    0.0073   -0.0209    0.0052
          50   -0.0005    0.0013    0.0019    0.0043   -0.0163   -0.0138   -0.0142   -0.0078
          51    0.0005    0.0048   -0.0014   -0.0018   -0.0035    0.0094    0.0069    0.0069
          52    0.0075    0.0004   -0.0278    0.0361   -0.0050    0.0260   -0.0135   -0.0157
          53   -0.0006    0.0015    0.0005    0.0047   -0.0167   -0.0124   -0.0137   -0.0095
          54   -0.0005    0.0071    0.0008    0.0009   -0.0148   -0.0040   -0.0013   -0.0018
          55    0.0026   -0.0002    0.0079   -0.0079   -0.0036    0.0012    0.0157   -0.0041
          56    0.0004   -0.0028   -0.0003   -0.0036    0.0056    0.0093    0.0034    0.0087
          57   -0.0005    0.0063    0.0008    0.0004   -0.0166   -0.0046   -0.0010   -0.0038
          58    0.0025   -0.0003    0.0087   -0.0108   -0.0046    0.0017    0.0187   -0.0057
          59    0.0031   -0.0026    0.0093   -0.0030    0.0138   -0.0012    0.0030    0.0222
          60   -0.0016    0.0055    0.0025   -0.0134   -0.0229    0.0000    0.0126   -0.0136
          61   -0.0000    0.0002    0.0022   -0.0117   -0.0091    0.0098    0.0195   -0.0135
          62    0.0043   -0.0029    0.0123   -0.0027    0.0158   -0.0047    0.0028    0.0258
          63   -0.0030    0.0064    0.0012   -0.0177   -0.0212    0.0075    0.0181   -0.0140
          64    0.0042   -0.0001    0.0116   -0.0035    0.0009   -0.0053    0.0113    0.0038
          65    0.0048   -0.0034    0.0142   -0.0027    0.0136   -0.0101    0.0018    0.0247
          66   -0.0016    0.0048    0.0042   -0.0180   -0.0267   -0.0018    0.0165   -0.0180
          67    0.0027   -0.0007    0.0130   -0.0194   -0.0060    0.0009    0.0272   -0.0075
          68    0.0025   -0.0018    0.0088   -0.0032    0.0178    0.0031    0.0043    0.0259
          69   -0.0014    0.0050    0.0036   -0.0150   -0.0252   -0.0023    0.0136   -0.0159
          70    0.0045    0.0000    0.0173   -0.0050    0.0043   -0.0122    0.0121    0.0105
          71   -0.0002   -0.0026   -0.0038   -0.0034    0.0018    0.0129    0.0032    0.0029
          72    0.0000    0.0068   -0.0016    0.0076   -0.0230   -0.0099   -0.0100   -0.0093
          73    0.0050   -0.0002    0.0150   -0.0010    0.0048   -0.0110    0.0089    0.0105
          74   -0.0013   -0.0024   -0.0113   -0.0029   -0.0059    0.0206    0.0027   -0.0092
          75    0.0010    0.0065   -0.0065    0.0156   -0.0221   -0.0073   -0.0165   -0.0096
          76    0.0041    0.0005    0.0259   -0.0125    0.0064   -0.0199    0.0177    0.0161
          77   -0.0004   -0.0034   -0.0043   -0.0055    0.0060    0.0177    0.0068    0.0059
          78    0.0001    0.0072   -0.0022    0.0095   -0.0255   -0.0118   -0.0126   -0.0116
          79    0.0058   -0.0002    0.0188    0.0004    0.0081   -0.0165    0.0072    0.0166
          80    0.0006   -0.0020    0.0013   -0.0017    0.0027    0.0033   -0.0002    0.0077
          81   -0.0007    0.0076    0.0016    0.0031   -0.0265   -0.0139   -0.0075   -0.0118
          82    0.0012   -0.0003    0.0049   -0.0185   -0.0115    0.0104    0.0267   -0.0171
          83   -0.0015   -0.0043   -0.0047   -0.0063    0.0082    0.0188    0.0077    0.0078
          84   -0.0003    0.0053    0.0008    0.0071   -0.0093   -0.0065   -0.0072    0.0055
          85   -0.0006   -0.0006    0.0025   -0.0161   -0.0104    0.0100    0.0240   -0.0160
          86   -0.0061   -0.0047   -0.0110   -0.0086    0.0034    0.0218    0.0090    0.0001
          87   -0.0004    0.0048    0.0006    0.0147   -0.0026   -0.0100   -0.0145    0.0148
          88   -0.0016   -0.0004   -0.0001   -0.0249   -0.0169    0.0178    0.0334   -0.0268
          89    0.0008   -0.0057   -0.0014   -0.0051    0.0122    0.0179    0.0073    0.0128
          90    0.0009    0.0031    0.0015    0.0029   -0.0077   -0.0008   -0.0013    0.0046
          91    0.0045   -0.0002    0.0098   -0.0227   -0.0132    0.0105    0.0313   -0.0190
          92   -0.0015   -0.0058   -0.0055   -0.0071    0.0113    0.0231    0.0096    0.0095
          93   -0.0013    0.0065    0.0001    0.0092   -0.0117   -0.0107   -0.0104    0.0045
          94   -0.0078   -0.0006    0.0146   -0.0020   -0.0002   -0.0054   -0.0018    0.0057
          95    0.0009   -0.0070   -0.0013   -0.0037    0.0041    0.0110    0.0037    0.0068
          96    0.0003    0.0058   -0.0009   -0.0038   -0.0021    0.0116    0.0093    0.0083
          97    0.0431    0.0029   -0.0103   -0.0093    0.0005   -0.0032    0.0017    0.0016
          98   -0.0232    0.0533   -0.0110    0.0020    0.0060    0.0009    0.0008    0.0041
          99    0.0009   -0.0270    0.0067    0.0044    0.0013   -0.0065   -0.0023   -0.0046
         100    0.0476    0.0024   -0.0080   -0.0100    0.0004   -0.0027    0.0013    0.0010
         101    0.0133    0.0501    0.0106   -0.0027    0.0053    0.0045   -0.0033    0.0001
         102   -0.0018   -0.0257   -0.0056    0.0023    0.0014   -0.0074    0.0008   -0.0050
         103    0.0637   -0.0029   -0.0033   -0.0121    0.0002   -0.0023    0.0008   -0.0009
         104   -0.0538    0.0657   -0.0203    0.0042    0.0066    0.0029    0.0015    0.0088
         105    0.0103   -0.0387    0.0088    0.0067    0.0009   -0.0122   -0.0016   -0.0079
         106    0.0694    0.0055    0.0004   -0.0134    0.0001   -0.0001   -0.0004   -0.0004
         107    0.0312    0.0551    0.0176   -0.0058    0.0053    0.0081   -0.0055    0.0008
         108   -0.0064   -0.0328   -0.0084    0.0035    0.0009   -0.0112    0.0030   -0.0088
         109    0.0215    0.0016   -0.0129   -0.0048    0.0006   -0.0053    0.0021    0.0033
         110    0.0174    0.0223    0.0166   -0.0010    0.0041   -0.0016   -0.0010   -0.0084
         111    0.0056   -0.0012   -0.0074   -0.0028    0.0024    0.0002   -0.0024    0.0017
         112    0.0177    0.0023   -0.0142   -0.0039    0.0005   -0.0061    0.0024    0.0041
         113    0.0245    0.0124    0.0267   -0.0026    0.0046    0.0010   -0.0028   -0.0134
         114    0.0177    0.0080   -0.0131   -0.0067    0.0024    0.0017   -0.0015    0.0038
         115    0.0162    0.0017   -0.0164   -0.0040    0.0008   -0.0059    0.0026    0.0043
         116   -0.0194    0.0249   -0.0155    0.0051    0.0049   -0.0093    0.0054   -0.0016
         117   -0.0070   -0.0006    0.0086    0.0030    0.0025    0.0033   -0.0065    0.0020
         118    0.0097   -0.0003   -0.0195   -0.0026    0.0011   -0.0071    0.0028    0.0054
         119   -0.0258    0.0151   -0.0254    0.0069    0.0056   -0.0142    0.0074   -0.0011
         120   -0.0186    0.0104    0.0154    0.0050    0.0024    0.0080   -0.0096    0.0051
         121   -0.0016    0.0001   -0.0072    0.0043    0.0005   -0.0027    0.0015    0.0039
         122    0.0005    0.0006    0.0004    0.0017   -0.0036   -0.0061    0.0011   -0.0055
         123    0.0001    0.0074    0.0003   -0.0012    0.0048    0.0039   -0.0055    0.0034
         124   -0.0029    0.0000   -0.0014    0.0035    0.0021    0.0035   -0.0050   -0.0035
         125    0.0005    0.0003   -0.0003    0.0010   -0.0065   -0.0042    0.0003   -0.0021
         126    0.0007    0.0076   -0.0010    0.0005    0.0104   -0.0033   -0.0009   -0.0007
         127   -0.0045    0.0003   -0.0036    0.0128   -0.0009   -0.0021    0.0093    0.0083
         128    0.0007   -0.0012    0.0005   -0.0010   -0.0071   -0.0018   -0.0033   -0.0036
         129   -0.0003    0.0045    0.0014   -0.0029   -0.0004    0.0103   -0.0099    0.0068
         130   -0.0050   -0.0001    0.0113    0.0143    0.0027    0.0146   -0.0014   -0.0104
         131    0.0005   -0.0015   -0.0013   -0.0027   -0.0132    0.0014   -0.0052    0.0041
         132    0.0008    0.0075   -0.0016   -0.0001    0.0108   -0.0041   -0.0010   -0.0007
         133   -0.0067    0.0005    0.0078    0.0233   -0.0004    0.0077    0.0127    0.0028
         134    0.0007   -0.0027   -0.0003   -0.0047   -0.0136    0.0041   -0.0088    0.0020
         135   -0.0002    0.0045    0.0009   -0.0031   -0.0000    0.0094   -0.0096    0.0067
         136   -0.0040    0.0006   -0.0093    0.0119   -0.0023   -0.0085    0.0130    0.0153
         137    0.0008   -0.0003    0.0011   -0.0003   -0.0047   -0.0030   -0.0024   -0.0065
         138   -0.0006    0.0025    0.0025   -0.0040   -0.0048    0.0156   -0.0133    0.0097
         139   -0.0064    0.0001    0.0164    0.0250    0.0016    0.0173    0.0079   -0.0078
         140    0.0004   -0.0031   -0.0014   -0.0057   -0.0166    0.0054   -0.0098    0.0061
         141    0.0004    0.0056   -0.0007   -0.0018    0.0056    0.0021   -0.0053    0.0030
         142   -0.0053   -0.0006    0.0178    0.0152    0.0042    0.0217   -0.0055   -0.0182
         143    0.0004   -0.0022   -0.0019   -0.0033   -0.0156    0.0029   -0.0060    0.0070
         144    0.0011    0.0088   -0.0035    0.0008    0.0148   -0.0103    0.0026   -0.0028
         145   -0.0082    0.0009    0.0107    0.0305   -0.0013    0.0085    0.0192    0.0060
         146    0.0008   -0.0034   -0.0002   -0.0069   -0.0162    0.0074   -0.0123    0.0034
         147   -0.0004    0.0037    0.0018   -0.0044   -0.0040    0.0143   -0.0129    0.0095
         148   -0.0075    0.0000    0.0277    0.0352    0.0024    0.0273    0.0117   -0.0144
         149    0.0002   -0.0045   -0.0026   -0.0090   -0.0220    0.0096   -0.0144    0.0113
         150    0.0004    0.0057   -0.0013   -0.0022    0.0060    0.0011   -0.0051    0.0030
         151   -0.0026    0.0000   -0.0078   -0.0074    0.0038    0.0003   -0.0152   -0.0050
         152    0.0004   -0.0002    0.0011    0.0040   -0.0027   -0.0065    0.0045   -0.0056
         153    0.0007    0.0069   -0.0006    0.0021    0.0173   -0.0081    0.0028   -0.0071
         154   -0.0023   -0.0002   -0.0074   -0.0100    0.0056    0.0019   -0.0178   -0.0079
         155    0.0024   -0.0000    0.0104    0.0098    0.0018    0.0008    0.0104   -0.0132
         156    0.0029    0.0061    0.0020   -0.0104    0.0265    0.0006   -0.0095   -0.0218
         157    0.0004    0.0003   -0.0007   -0.0108    0.0103    0.0101   -0.0185   -0.0162
         158    0.0026   -0.0002    0.0117    0.0115    0.0038   -0.0003    0.0127   -0.0153
         159    0.0046    0.0070    0.0042   -0.0145    0.0257    0.0087   -0.0145   -0.0234
         160   -0.0038    0.0002   -0.0096   -0.0026    0.0000   -0.0040   -0.0106    0.0012
         161    0.0042    0.0009    0.0158    0.0106    0.0006    0.0104    0.0102   -0.0147
         162    0.0036    0.0058    0.0027   -0.0149    0.0299    0.0031   -0.0138   -0.0270
         163   -0.0026   -0.0007   -0.0117   -0.0184    0.0075    0.0007   -0.0260   -0.0101
         164    0.0021   -0.0005    0.0110    0.0117    0.0042   -0.0019    0.0131   -0.0153
         165    0.0024    0.0053    0.0009   -0.0115    0.0302   -0.0033   -0.0097   -0.0253
         166   -0.0047    0.0002   -0.0176   -0.0047   -0.0047   -0.0134   -0.0119    0.0103
         167    0.0003   -0.0006   -0.0020    0.0004   -0.0078   -0.0058   -0.0000    0.0002
         168    0.0001    0.0073    0.0002    0.0084    0.0216   -0.0141    0.0106   -0.0100
         169   -0.0053   -0.0001   -0.0163   -0.0011   -0.0061   -0.0133   -0.0090    0.0118
         170   -0.0002   -0.0006   -0.0110   -0.0040   -0.0142   -0.0139   -0.0037    0.0111
         171   -0.0013    0.0069    0.0014    0.0154    0.0176   -0.0152    0.0162   -0.0050
         172   -0.0044    0.0007   -0.0262   -0.0120   -0.0063   -0.0216   -0.0172    0.0156
         173    0.0002   -0.0001   -0.0016    0.0023   -0.0049   -0.0083    0.0028   -0.0022
         174   -0.0001    0.0080    0.0008    0.0113    0.0258   -0.0178    0.0147   -0.0135
         175   -0.0060   -0.0001   -0.0184    0.0005   -0.0084   -0.0164   -0.0074    0.0158
         176    0.0009   -0.0015    0.0042    0.0001   -0.0081    0.0051   -0.0025   -0.0038
         177    0.0011    0.0078   -0.0003    0.0035    0.0252   -0.0135    0.0068   -0.0144
         178   -0.0015    0.0001   -0.0054   -0.0178    0.0121    0.0083   -0.0257   -0.0181
         179   -0.0014    0.0015   -0.0033    0.0048    0.0019   -0.0153    0.0070   -0.0073
         180   -0.0003    0.0067   -0.0026    0.0097    0.0117   -0.0143    0.0105    0.0020
         181   -0.0003   -0.0002   -0.0038   -0.0153    0.0107    0.0076   -0.0231   -0.0163
         182   -0.0058    0.0022   -0.0092    0.0033    0.0006   -0.0163    0.0046   -0.0046
         183   -0.0023    0.0064   -0.0052    0.0174    0.0036   -0.0188    0.0176    0.0137
         184    0.0017    0.0002    0.0000   -0.0241    0.0180    0.0156   -0.0322   -0.0283
         185    0.0008    0.0038   -0.0007    0.0063    0.0056   -0.0178    0.0099   -0.0101
[...]
 FREQUENCY          1927.17         C 39 -- O 40         +14.9% ( 52.6%)    100.0%
 TRANSITION DIPOLE   1.9785         C  7 -- O  8         +14.9% ( 52.5%)    100.0%
 TRAVEL (Ang.)       0.1419         C 37 -- O 38         +10.3% ( 43.6%)    100.0%
 REDUCED MASS        1.7371         C  5 -- O  6         +10.3% ( 43.6%)    100.0%
 EFFECTIVE MASS     13.2176
 FORCE CONSTANT      3.8010

 VIBRATION        156   79A           ATOM PAIR      ENERGY CONTRIBUTION    RADIAL
 FREQUENCY          1932.06         C  7 -- O  8         +14.3% ( 51.4%)    100.0%
 TRANSITION DIPOLE   0.2549         C 39 -- O 40         +14.3% ( 51.4%)    100.0%
 TRAVEL (Ang.)       0.1429         C  5 -- O  6         +10.7% ( 44.5%)    100.0%
 REDUCED MASS        1.7101         C 37 -- O 38         +10.7% ( 44.5%)    100.0%
 EFFECTIVE MASS     13.2079
 FORCE CONSTANT      3.7611

 VIBRATION        157   78B           ATOM PAIR      ENERGY CONTRIBUTION    RADIAL
 FREQUENCY          2664.15         C 60 -- H 61         +32.1% ( 58.5%)     99.4%
 TRANSITION DIPOLE   0.4992         C 28 -- H 29         +32.1% ( 58.5%)     99.4%
 TRAVEL (Ang.)       0.3132         C 60 -- H 63         +14.5% ( 39.4%)     94.1%
 REDUCED MASS        0.2579         C 28 -- H 31         +14.5% ( 39.4%)     94.0%
 EFFECTIVE MASS      1.4521
 FORCE CONSTANT      1.0787

 VIBRATION        158   80A           ATOM PAIR      ENERGY CONTRIBUTION    RADIAL
 FREQUENCY          2664.76         C 28 -- H 29         +32.3% ( 58.6%)     99.5%
 TRANSITION DIPOLE   0.2451         C 60 -- H 61         +32.3% ( 58.6%)     99.5%
 TRAVEL (Ang.)       0.3173         C 28 -- H 31         +12.9% ( 37.1%)     92.8%
 REDUCED MASS        0.2514         C 60 -- H 63         +12.9% ( 37.1%)     92.9%
 EFFECTIVE MASS      1.4550
 FORCE CONSTANT      1.0517

 VIBRATION        159   79B           ATOM PAIR      ENERGY CONTRIBUTION    RADIAL
 FREQUENCY          2666.84         C 52 -- H 54         +19.2% ( 45.3%)     98.0%
 TRANSITION DIPOLE   0.1989         C 20 -- H 22         +19.2% ( 45.3%)     98.0%
 TRAVEL (Ang.)       0.4021         C 52 -- H 53         +18.3% ( 44.1%)     97.6%
 REDUCED MASS        0.1564         C 20 -- H 21         +18.3% ( 44.1%)     97.7%
 EFFECTIVE MASS      1.4474
 FORCE CONSTANT      0.6552

 VIBRATION        160   81A           ATOM PAIR      ENERGY CONTRIBUTION    RADIAL
 FREQUENCY          2667.09         C 20 -- H 22         +19.4% ( 45.5%)     98.1%
 TRANSITION DIPOLE   0.4740         C 52 -- H 54         +19.4% ( 45.5%)     98.1%
 TRAVEL (Ang.)       0.4065         C 20 -- H 21         +17.7% ( 43.4%)     97.6%
 REDUCED MASS        0.1530         C 52 -- H 53         +17.7% ( 43.4%)     97.5%
 EFFECTIVE MASS      1.4462
 FORCE CONSTANT      0.6412

 VIBRATION        161   80B           ATOM PAIR      ENERGY CONTRIBUTION    RADIAL
 FREQUENCY          2671.63         C 56 -- H 59         +20.9% ( 47.1%)     99.1%
 TRANSITION DIPOLE   0.7762         C 24 -- H 27         +20.8% ( 47.1%)     99.2%
 TRAVEL (Ang.)       0.4398         C 56 -- H 58         +10.8% ( 33.9%)     94.6%
 REDUCED MASS        0.1305         C 24 -- H 26         +10.8% ( 33.9%)     94.8%
 EFFECTIVE MASS      1.4597
 FORCE CONSTANT      0.5488

 VIBRATION        162   82A           ATOM PAIR      ENERGY CONTRIBUTION    RADIAL
 FREQUENCY          2671.98         C 24 -- H 27         +23.1% ( 49.6%)     99.2%
 TRANSITION DIPOLE   0.4015         C 56 -- H 59         +23.1% ( 49.6%)     99.1%
 TRAVEL (Ang.)       0.4065         C 24 -- H 26         +11.5% ( 35.0%)     94.5%
 REDUCED MASS        0.1527         C 56 -- H 58         +11.5% ( 35.0%)     94.3%
 EFFECTIVE MASS      1.4617
 FORCE CONSTANT      0.6425

 VIBRATION        163   81B           ATOM PAIR      ENERGY CONTRIBUTION    RADIAL
 FREQUENCY          2675.45         C 60 -- H 62         +24.5% ( 51.1%)     98.8%
 TRANSITION DIPOLE   0.4773         C 28 -- H 30         +24.5% ( 51.1%)     98.9%
 TRAVEL (Ang.)       0.3715         C 60 -- H 63         +15.6% ( 40.8%)     95.4%
 REDUCED MASS        0.1826         C 28 -- H 31         +15.6% ( 40.8%)     95.3%
 EFFECTIVE MASS      1.4654
 FORCE CONSTANT      0.7701

 VIBRATION        164   83A           ATOM PAIR      ENERGY CONTRIBUTION    RADIAL
 FREQUENCY          2677.05         C 28 -- H 30         +23.2% ( 49.7%)     98.9%
 TRANSITION DIPOLE   0.3355         C 60 -- H 62         +23.2% ( 49.7%)     98.8%
 TRAVEL (Ang.)       0.3885         C 28 -- H 31         +15.5% ( 40.7%)     95.7%
 REDUCED MASS        0.1669         C 60 -- H 63         +15.5% ( 40.7%)     95.8%
 EFFECTIVE MASS      1.4647
 FORCE CONSTANT      0.7047

 VIBRATION        165   82B           ATOM PAIR      ENERGY CONTRIBUTION    RADIAL
 FREQUENCY          2679.75         C 24 -- H 25         +26.0% ( 52.6%)     99.4%
 TRANSITION DIPOLE   0.5885         C 56 -- H 57         +26.0% ( 52.6%)     99.3%
 TRAVEL (Ang.)       0.3732         C 24 -- H 26         +12.5% ( 36.5%)     93.8%
 REDUCED MASS        0.1807         C 56 -- H 58         +12.5% ( 36.5%)     93.9%
 EFFECTIVE MASS      1.4626
 FORCE CONSTANT      0.7645

 VIBRATION        166   84A           ATOM PAIR      ENERGY CONTRIBUTION    RADIAL
 FREQUENCY          2679.91         C 56 -- H 57         +22.9% ( 49.3%)     99.3%
 TRANSITION DIPOLE   0.1130         C 24 -- H 25         +22.9% ( 49.3%)     99.3%
 TRAVEL (Ang.)       0.4074         C 56 -- H 58         +11.2% ( 34.5%)     94.1%
 REDUCED MASS        0.1516         C 24 -- H 26         +11.2% ( 34.5%)     94.0%
 EFFECTIVE MASS      1.4616
 FORCE CONSTANT      0.6413

 VIBRATION        167   83B           ATOM PAIR      ENERGY CONTRIBUTION    RADIAL
 FREQUENCY          2681.77         C 20 -- H 23         +24.4% ( 50.9%)     99.3%
 TRANSITION DIPOLE   0.7867         C 52 -- H 55         +24.4% ( 50.9%)     99.4%
 TRAVEL (Ang.)       0.3951         C 52 -- H 54          +9.0% ( 31.0%)     88.8%
 REDUCED MASS        0.1611         C 20 -- H 22          +9.0% ( 31.0%)     89.2%
 EFFECTIVE MASS      1.4646
 FORCE CONSTANT      0.6825

 VIBRATION        168   85A           ATOM PAIR      ENERGY CONTRIBUTION    RADIAL
 FREQUENCY          2683.31         C 52 -- H 55         +19.4% ( 45.4%)     99.3%
 TRANSITION DIPOLE   0.8234         C 20 -- H 23         +19.4% ( 45.4%)     99.3%
 TRAVEL (Ang.)       0.4710         C 52 -- H 53          +7.2% ( 27.7%)     89.9%
 REDUCED MASS        0.1133         C 20 -- H 21          +7.2% ( 27.7%)     89.5%
 EFFECTIVE MASS      1.4670
 FORCE CONSTANT      0.4806

 VIBRATION        169   86A           ATOM PAIR      ENERGY CONTRIBUTION    RADIAL
 FREQUENCY          2712.72         C 34 -- H 36         +33.9% ( 59.6%)     99.7%
 TRANSITION DIPOLE   0.4095         C  2 -- H  4         +33.9% ( 59.6%)     99.9%
 TRAVEL (Ang.)       0.3023         C 33 -- H 35         +14.3% ( 38.7%)     99.8%
 REDUCED MASS        0.2720         C  1 -- H  3         +14.3% ( 38.7%)     99.9%
 EFFECTIVE MASS      1.3914
 FORCE CONSTANT      1.1793

 VIBRATION        170   84B           ATOM PAIR      ENERGY CONTRIBUTION    RADIAL
 FREQUENCY          2723.20         C  2 -- H  4         +45.7% ( 69.5%)     99.9%
 TRANSITION DIPOLE   0.7025         C 34 -- H 36         +45.7% ( 69.5%)     99.7%
 TRAVEL (Ang.)       0.2388         C 33 -- H 35          +1.5% ( 12.8%)     99.9%
 REDUCED MASS        0.4344         C  1 -- H  3          +1.5% ( 12.8%)     99.8%
 EFFECTIVE MASS      1.5254
 FORCE CONSTANT      1.8980

 VIBRATION        171   85B           ATOM PAIR      ENERGY CONTRIBUTION    RADIAL
 FREQUENCY          2731.35         C 12 -- H 16         +47.1% ( 69.3%)    100.0%
 TRANSITION DIPOLE   0.2771         C 44 -- H 48         +47.1% ( 69.3%)    100.0%
 TRAVEL (Ang.)       0.2392         C 11 -- H 14          +1.1% ( 10.6%)    100.0%
 REDUCED MASS        0.4315         C 43 -- H 46          +1.1% ( 10.6%)    100.0%
 EFFECTIVE MASS      1.3781
 FORCE CONSTANT      1.8967

 VIBRATION        172   87A           ATOM PAIR      ENERGY CONTRIBUTION    RADIAL
 FREQUENCY          2731.54         C 44 -- H 48         +47.2% ( 69.4%)    100.0%
 TRANSITION DIPOLE   1.2055         C 12 -- H 16         +47.2% ( 69.4%)    100.0%
 TRAVEL (Ang.)       0.2386         C 43 -- H 46          +1.0% ( 10.1%)    100.0%
 REDUCED MASS        0.4334         C 11 -- H 14          +1.0% ( 10.1%)    100.0%
 EFFECTIVE MASS      1.3782
 FORCE CONSTANT      1.9054

 VIBRATION        173   86B           ATOM PAIR      ENERGY CONTRIBUTION    RADIAL
 FREQUENCY          2742.14         C 33 -- H 35         +45.8% ( 69.2%)     99.7%
 TRANSITION DIPOLE   1.0557         C  1 -- H  3         +45.8% ( 69.2%)     99.9%
 TRAVEL (Ang.)       0.2394         C  2 -- H  4          +1.5% ( 12.6%)     99.8%
 REDUCED MASS        0.4291         C 34 -- H 36          +1.5% ( 12.6%)     99.8%
 EFFECTIVE MASS      1.4623
 FORCE CONSTANT      1.9010

 VIBRATION        174   88A           ATOM PAIR      ENERGY CONTRIBUTION    RADIAL
 FREQUENCY          2744.70         C 43 -- H 46         +41.5% ( 65.1%)     99.9%
 TRANSITION DIPOLE   0.3205         C 11 -- H 14         +41.3% ( 65.0%)    100.0%
 TRAVEL (Ang.)       0.2686         C 45 -- H 49          +6.1% ( 25.0%)     99.8%
 REDUCED MASS        0.3405         C 13 -- H 17          +6.1% ( 25.0%)     99.7%
 EFFECTIVE MASS      1.3740
 FORCE CONSTANT      1.5113

 VIBRATION        175   87B           ATOM PAIR      ENERGY CONTRIBUTION    RADIAL
 FREQUENCY          2744.73         C 11 -- H 14         +41.4% ( 65.0%)    100.0%
 TRANSITION DIPOLE   0.4307         C 43 -- H 46         +41.3% ( 64.9%)     99.9%
 TRAVEL (Ang.)       0.2687         C 13 -- H 17          +6.2% ( 25.2%)     99.7%
 REDUCED MASS        0.3403         C 45 -- H 49          +6.2% ( 25.2%)     99.8%
 EFFECTIVE MASS      1.3721
 FORCE CONSTANT      1.5106

 VIBRATION        176   89A           ATOM PAIR      ENERGY CONTRIBUTION    RADIAL
 FREQUENCY          2752.46         C  1 -- H  3         +32.5% ( 58.5%)     99.9%
 TRANSITION DIPOLE   1.2933         C 33 -- H 35         +32.5% ( 58.5%)     99.7%
 TRAVEL (Ang.)       0.3065         C 34 -- H 36         +13.4% ( 37.5%)     99.7%
 REDUCED MASS        0.2609         C  2 -- H  4         +13.3% ( 37.5%)     99.8%
 EFFECTIVE MASS      1.6064
 FORCE CONSTANT      1.1644

 VIBRATION        177   88B           ATOM PAIR      ENERGY CONTRIBUTION    RADIAL
 FREQUENCY          2761.25         C 45 -- H 49         +41.3% ( 64.9%)    100.0%
 TRANSITION DIPOLE   0.6967         C 13 -- H 17         +41.3% ( 64.9%)    100.0%
 TRAVEL (Ang.)       0.2684         C 43 -- H 46          +6.0% ( 24.7%)     99.9%
 REDUCED MASS        0.3389         C 11 -- H 14          +6.0% ( 24.7%)     99.8%
 EFFECTIVE MASS      1.3969
 FORCE CONSTANT      1.5226

 VIBRATION        178   90A           ATOM PAIR      ENERGY CONTRIBUTION    RADIAL
 FREQUENCY          2761.57         C 13 -- H 17         +40.4% ( 64.2%)    100.0%
 TRANSITION DIPOLE   1.2384         C 45 -- H 49         +40.4% ( 64.2%)    100.0%
 TRAVEL (Ang.)       0.2734         C 11 -- H 14          +6.2% ( 25.2%)     99.8%
 REDUCED MASS        0.3267         C 43 -- H 46          +6.2% ( 25.2%)     99.9%
 EFFECTIVE MASS      1.3988
 FORCE CONSTANT      1.4680

 VIBRATION        179   89B           ATOM PAIR      ENERGY CONTRIBUTION    RADIAL
 FREQUENCY          2776.65         C 56 -- H 58         +17.2% ( 39.9%)     96.6%
 TRANSITION DIPOLE   0.2683         C 24 -- H 26         +17.2% ( 39.8%)     96.5%
 TRAVEL (Ang.)       0.4163         C 56 -- H 57         +15.3% ( 37.6%)     95.8%
 REDUCED MASS        0.1401         C 24 -- H 25         +15.3% ( 37.5%)     95.7%
 EFFECTIVE MASS      1.1287         C 56 -- H 59         +13.3% ( 35.1%)     95.1%
 FORCE CONSTANT      0.6364         C 24 -- H 27         +13.3% ( 35.1%)     94.9%

 VIBRATION        180   91A           ATOM PAIR      ENERGY CONTRIBUTION    RADIAL
 FREQUENCY          2776.68         C 24 -- H 26         +12.9% ( 34.5%)     96.6%
 TRANSITION DIPOLE   0.4209         C 56 -- H 58         +12.9% ( 34.5%)     96.6%
 TRAVEL (Ang.)       0.5093         C 24 -- H 25         +11.3% ( 32.3%)     95.7%
 REDUCED MASS        0.0936         C 56 -- H 57         +11.3% ( 32.3%)     95.8%
 EFFECTIVE MASS      1.1302         C 24 -- H 27         +10.1% ( 30.6%)     95.0%
 FORCE CONSTANT      0.4252         C 56 -- H 59         +10.1% ( 30.5%)     95.1%

 VIBRATION        181   92A           ATOM PAIR      ENERGY CONTRIBUTION    RADIAL
 FREQUENCY          2777.72         C 60 -- H 62         +11.5% ( 32.6%)     96.5%
 TRANSITION DIPOLE   0.1799         C 28 -- H 30         +11.5% ( 32.6%)     96.6%
 TRAVEL (Ang.)       0.5686         C 60 -- H 63         +10.6% ( 31.3%)     95.8%
 REDUCED MASS        0.0751         C 28 -- H 31         +10.6% ( 31.3%)     96.1%
 EFFECTIVE MASS      1.1336
 FORCE CONSTANT      0.3413

 VIBRATION        182   90B           ATOM PAIR      ENERGY CONTRIBUTION    RADIAL
 FREQUENCY          2779.07         C 28 -- H 30         +14.5% ( 36.6%)     96.8%
 TRANSITION DIPOLE   0.5364         C 60 -- H 62         +14.5% ( 36.6%)     96.7%
 TRAVEL (Ang.)       0.4884         C 28 -- H 31         +12.8% ( 34.3%)     96.0%
 REDUCED MASS        0.1017         C 60 -- H 63         +12.8% ( 34.3%)     95.7%
 EFFECTIVE MASS      1.1340
 FORCE CONSTANT      0.4629

 VIBRATION        183   93A           ATOM PAIR      ENERGY CONTRIBUTION    RADIAL
 FREQUENCY          2781.02         C 52 -- H 55         +17.1% ( 39.7%)     96.7%
 TRANSITION DIPOLE   0.1446         C 20 -- H 23         +17.1% ( 39.7%)     96.8%
 TRAVEL (Ang.)       0.4458         C 52 -- H 53         +13.4% ( 35.2%)     95.2%
 REDUCED MASS        0.1220         C 20 -- H 21         +13.4% ( 35.2%)     95.5%
 EFFECTIVE MASS      1.1346         C 52 -- H 54         +11.8% ( 33.0%)     94.5%
 FORCE CONSTANT      0.5560         C 20 -- H 22         +11.8% ( 33.0%)     94.1%

 VIBRATION        184   91B           ATOM PAIR      ENERGY CONTRIBUTION    RADIAL
 FREQUENCY          2781.36         C 20 -- H 23         +15.3% ( 37.5%)     96.8%
 TRANSITION DIPOLE   0.4996         C 52 -- H 55         +15.3% ( 37.5%)     96.7%
 TRAVEL (Ang.)       0.4879         C 20 -- H 21         +12.0% ( 33.3%)     95.5%
 REDUCED MASS        0.1019         C 52 -- H 53         +12.0% ( 33.3%)     95.2%
 EFFECTIVE MASS      1.1358         C 20 -- H 22         +10.4% ( 30.9%)     94.0%
 FORCE CONSTANT      0.4642         C 52 -- H 54         +10.4% ( 30.9%)     94.4%

 VIBRATION        185   92B           ATOM PAIR      ENERGY CONTRIBUTION    RADIAL
 FREQUENCY          2792.55         C 47 -- H 50         +46.8% ( 69.1%)    100.0%
 TRANSITION DIPOLE   1.3582         C 15 -- H 18         +46.8% ( 69.1%)    100.0%
 TRAVEL (Ang.)       0.2379         C 45 -- H 49          +1.4% ( 11.9%)     99.2%
 REDUCED MASS        0.4267         C 13 -- H 17          +1.4% ( 11.9%)     99.1%
 EFFECTIVE MASS      1.4014
 FORCE CONSTANT      1.9606

 VIBRATION        186   94A           ATOM PAIR      ENERGY CONTRIBUTION    RADIAL
 FREQUENCY          2792.87         C 15 -- H 18         +46.7% ( 69.0%)    100.0%
 TRANSITION DIPOLE   0.2342         C 47 -- H 50         +46.7% ( 69.0%)    100.0%
 TRAVEL (Ang.)       0.2385         C 13 -- H 17          +1.5% ( 12.3%)     99.1%
 REDUCED MASS        0.4245         C 45 -- H 49          +1.5% ( 12.3%)     99.2%
 EFFECTIVE MASS      1.4020
 FORCE CONSTANT      1.9506

           FORCE CONSTANT IN CARTESIAN COORDINATES (Millidynes/A)

    ATOM   CHEMICAL       X               Y               Z
   NUMBER   SYMBOL  FORCE CONSTANT  FORCE CONSTANT  FORCE CONSTANT

      1       C       14.536645        6.711759        3.005534
      2       C       14.502991        6.759608        3.155401
      3       H        2.207192        2.662300        0.622396
      4       H        2.184918        2.690853        0.638685
      5       C       15.675974        7.219627        3.266061
      6       O       12.437139        2.766068        0.502579
      7       C       15.735653        7.166338        3.270305
      8       O       12.571475        2.785576        0.492705
      9       C        2.903406       11.268419       10.444431
     10       C        2.964121       10.730055       10.313531
     11       C        2.383915        9.677462       11.450550
     12       C        2.416563        9.579322       11.600761
     13       C        2.410401       11.060442       10.497784
     14       H        0.411212        4.208799        0.970563
     15       C        2.401138       11.090836       10.507202
     16       H        0.413698        4.152097        1.065951
     17       H        0.407263        1.715775        3.454270
     18       H        0.363263        1.808131        3.461837
     19       C        7.354747        7.344758        7.555936
     20       C        6.403740        6.452192        6.518837
     21       H        1.419008        3.419780        0.594683
     22       H        1.644716        1.514666        2.313551
     23       H        0.878348        1.259525        3.295515
     24       C        6.530726        6.309091        6.614551
     25       H        3.415049        0.761899        1.288116
     26       H        0.606656        1.666883        3.195153
     27       H        2.007004        1.753442        1.703606
     28       C        6.296127        6.618325        6.607390
     29       H        3.306126        0.993599        1.163270
     30       H        1.289731        2.752562        1.451762
     31       H        0.771242        2.188286        2.482703
     32       N        8.594339        6.961789        6.894227
     33       C       14.704660        4.709940        4.839338
     34       C       14.082271        5.349320        4.986408
     35       H        2.639440        1.792694        1.059755
     36       H        1.778011        2.595584        1.140861
     37       C       16.504832        4.496233        5.160595
     38       O       13.399218        1.274128        1.032441
     39       C       14.608770        6.147161        5.416365
     40       O       11.285162        3.166774        1.397819
     41       C        3.148791       10.454684       11.012781
     42       C        3.218605       10.248658       10.540444
     43       C        2.617726        9.239785       11.654417
     44       C        2.684910       10.077890       10.833845
     45       C        2.702335       10.053691       11.212600
     46       H        0.529079        3.500316        1.561178
     47       C        2.721685       11.315553        9.961937
     48       H        0.550285        3.414276        1.667185
     49       H        0.484120        3.070510        2.022678
     50       H        0.394826        0.913424        4.324981
     51       C        7.357978        7.406899        7.490564
     52       C        6.392515        6.500463        6.481791
     53       H        1.127965        3.063472        1.242034
     54       H        1.785030        0.610429        3.077474
     55       H        1.002884        2.574622        1.855882
     56       C        6.539364        6.361261        6.553744
     57       H        3.420268        0.742820        1.301977
     58       H        0.569409        3.145762        1.753522
     59       H        2.193374        0.819678        2.451000
     60       C        6.285955        6.587699        6.648188
     61       H        3.575980        1.004789        0.882226
     62       H        1.055701        1.697176        2.741178
     63       H        0.659598        3.608216        1.174416
     64       N        8.525435        2.826410       11.098510

 **********************
 *                    *
 * JOB ENDED NORMALLY *
 *                    *
 **********************



 TOTAL JOB TIME:            20.53 SECONDS

 == MOPAC DONE ==
