 *******************************************************************************
 ** Site#: 36969        For non-commercial use only    Version 21.051W 64BITS **
 *******************************************************************************
 ** Cite this program as: MOPAC2016, Version: 21.051W, James J. P. Stewart,   **
 ** Stewart Computational Chemistry, web: HTTP://OpenMOPAC.net. Days left: 265**
 *******************************************************************************
 **                                                                           **
 **                                MOPAC2016                                  **
 **                                                                           **
 *******************************************************************************

                              PM7 CALCULATION RESULTS

 *******************************************************************************
 *  CALCULATION DONE:                                Mon May 31 14:37:35 2021  *
 *  PM7        - The PM7 Hamiltonian to be used
 *  STEP       - STEP-SIZE IN PATH =   0.030
 *  POINT      - NUMBER OF POINTS IN PATH =500
 *  T=         - A TIME OF 172800.0 SECONDS REQUESTED
 *  DUMP=N     - RESTART FILE WRITTEN EVERY 7200.0 SECONDS REQUESTED
 *******************************************************************************
PM7 step=0.03, point=500
 Title

  ATOM    CHEMICAL      BOND LENGTH      BOND ANGLE     TWIST ANGLE 
 NUMBER    SYMBOL       (ANGSTROMS)      (DEGREES)       (DEGREES) 
   (I)                     NA:I           NB:NA:I       NC:NB:NA:I       NA    NB    NC 
     1       C          0.00000000  *    0.0000000  *    0.0000000  *     0     0     0
     2       H          1.06998900  *    0.0000000  *    0.0000000  *     1     0     0
     3       H          1.07000000  *  109.4727550  *    0.0000000  *     1     2     0
     4       H          1.07000000  *  109.4704150  *  119.9935600  *     1     2     3
     5       C          1.54000200  +  109.4743110  * -120.0078190  *     1     2     3
     6       H          1.07000000  *  109.4689520  *   60.0004840  *     5     1     2
     7       H          1.06989500  *  109.4734190  * -179.9983650  *     5     1     2
     8       H          1.07008100  *  109.4691980  *  -59.9950860  *     5     1     2
 


          CARTESIAN COORDINATES 

    NO.       ATOM           X           Y           Z

     1         C          0.0000      0.0000      0.0000
     2         H          1.0700      0.0000      0.0000
     3         H         -0.3567      1.0088      0.0000
     4         H         -0.3567     -0.5043     -0.8737
     5         C         -0.5134     -0.7261      1.2573
     6         H         -0.1568     -0.2218      2.1310
     7         H         -1.5833     -0.7261      1.2573
     8         H         -0.1567     -1.7350      1.2572

 General Reference for PM7:
 "Optimization of Parameters for Semiempirical Methods VI: More Modifications to the 
 NDDO Approximations and Re-optimization of Parameters", J. J. P. Stewart, J. Mol. Mod., 1:32, 19 (2013)
 https://link.springer.com/article/10.1007/s00894-012-1667-x

           Empirical Formula: C2 H6  =     8 atoms



      MOLECULAR POINT GROUP   :   D3d 


      RHF CALCULATION, NO. OF DOUBLY OCCUPIED LEVELS = 7

  ABOUT TO ENTER EF FROM PATHK

          Geometry optimization using EF

          DIAGONAL MATRIX USED AS START HESSIAN

 CYCLE:     1 TIME:   0.000 TIME LEFT:  2.00D  GRAD.:    41.506 HEAT: -16.48660
 CYCLE:     2 TIME:   0.004 TIME LEFT:  2.00D  GRAD.:    14.758 HEAT: -17.76890
 CYCLE:     3 TIME:   0.000 TIME LEFT:  2.00D  GRAD.:     3.952 HEAT: -18.03467
 CYCLE:     4 TIME:   0.000 TIME LEFT:  2.00D  GRAD.:     3.423 HEAT: -18.06998
 CYCLE:     5 TIME:   0.000 TIME LEFT:  2.00D  GRAD.:     1.965 HEAT: -18.10274
 CYCLE:     6 TIME:   0.004 TIME LEFT:  2.00D  GRAD.:     1.336 HEAT: -18.10901
 CYCLE:     7 TIME:   0.000 TIME LEFT:  2.00D  GRAD.:     0.929 HEAT: -18.11409

     GRADIENT =  0.92867 IS LESS THAN CUTOFF =  1.00000



          VARIABLE        FUNCTION
 :         1.54000      -18.114090
 PM7 step=0.03, point=500
 Title

  C     0.00000001 +1    0.0000000 +1    0.0000000 +1     0     0     0
  H     1.09428437 +1    0.0000000 +1   -0.0000000 +1     1     0     0
  H     1.09400048 +1  107.8449596 +1   -0.0000000 +1     1     2     0
  H     1.09410057 +1  107.9723452 +1  116.1658005 +1     1     2     3
  C     1.54000200 -1  110.9568978 +1 -121.9194386 +1     1     2     3
  H     1.09429673 +1  111.1762461 +1   59.9785866 +1     5     1     2
  H     1.09426492 +1  111.1986195 +1  179.9749519 +1     5     1     2
  H     1.09424278 +1  111.1708307 +1  -60.0228475 +1     5     1     2
 

          Geometry optimization using EF

          DIAGONAL MATRIX USED AS START HESSIAN

 CYCLE:     1 TIME:   0.004 TIME LEFT:  2.00D  GRAD.:     5.243 HEAT: -17.47180
 CYCLE:     2 TIME:   0.000 TIME LEFT:  2.00D  GRAD.:     2.990 HEAT: -17.51261
 CYCLE:     3 TIME:   0.000 TIME LEFT:  2.00D  GRAD.:     1.228 HEAT: -17.53939
 CYCLE:     4 TIME:   0.000 TIME LEFT:  2.00D  GRAD.:     0.832 HEAT: -17.54164

     GRADIENT =  0.83234 IS LESS THAN CUTOFF =  1.00000



          VARIABLE        FUNCTION
 :         1.57000      -17.541645
 PM7 step=0.03, point=500
 Title

  C     0.00000001 +1    0.0000000 +1    0.0000001 +1     0     0     0
  H     1.09154977 +1    0.0000000 +1   -0.0000000 +1     1     0     0
  H     1.09169216 +1  108.2617584 +1   -0.0000000 +1     1     2     0
  H     1.09206032 +1  108.2285761 +1  117.2635070 +1     1     2     3
  C     1.57000200 -1  110.8515390 +1 -121.4366409 +1     1     2     3
  H     1.09177331 +1  110.4572924 +1   59.9719623 +1     5     1     2
  H     1.09168646 +1  110.4552926 +1  179.9720224 +1     5     1     2
  H     1.09172560 +1  110.4517931 +1  -60.0171992 +1     5     1     2
 

          Geometry optimization using EF

          DIAGONAL MATRIX USED AS START HESSIAN

 CYCLE:     1 TIME:   0.000 TIME LEFT:  2.00D  GRAD.:     4.794 HEAT: -16.43522
 CYCLE:     2 TIME:   0.000 TIME LEFT:  2.00D  GRAD.:     2.856 HEAT: -16.47015
 CYCLE:     3 TIME:   0.004 TIME LEFT:  2.00D  GRAD.:     1.679 HEAT: -16.49918
 CYCLE:     4 TIME:   0.000 TIME LEFT:  2.00D  GRAD.:     1.284 HEAT: -16.50371
 CYCLE:     5 TIME:   0.000 TIME LEFT:  2.00D  GRAD.:     0.676 HEAT: -16.50777

     GRADIENT =  0.67554 IS LESS THAN CUTOFF =  1.00000



          VARIABLE        FUNCTION
 :         1.60000      -16.507771
 PM7 step=0.03, point=500
 Title

  C     0.00000002 +1    0.0000000 +1    0.0000001 +1     0     0     0
  H     1.08949803 +1    0.0000000 +1   -0.0000000 +1     1     0     0
  H     1.08980421 +1  108.9591424 +1   -0.0000000 +1     1     2     0
  H     1.08995336 +1  108.8285990 +1  118.7529202 +1     1     2     3
  C     1.60000200 -1  110.1794283 +1 -120.6556580 +1     1     2     3
  H     1.08968624 +1  109.8177494 +1   59.9754265 +1     5     1     2
  H     1.08962368 +1  109.7913745 +1  179.9777264 +1     5     1     2
  H     1.08964991 +1  109.8177721 +1  -60.0251379 +1     5     1     2
 

          Geometry optimization using EF

          DIAGONAL MATRIX USED AS START HESSIAN

 CYCLE:     1 TIME:   0.000 TIME LEFT:  2.00D  GRAD.:     4.710 HEAT: -15.03013
 CYCLE:     2 TIME:   0.000 TIME LEFT:  2.00D  GRAD.:     2.623 HEAT: -15.06077
 CYCLE:     3 TIME:   0.000 TIME LEFT:  2.00D  GRAD.:     1.607 HEAT: -15.08328
 CYCLE:     4 TIME:   0.004 TIME LEFT:  2.00D  GRAD.:     1.308 HEAT: -15.08788
 CYCLE:     5 TIME:   0.000 TIME LEFT:  2.00D  GRAD.:     0.685 HEAT: -15.09136

     GRADIENT =  0.68481 IS LESS THAN CUTOFF =  1.00000



          VARIABLE        FUNCTION
 :         1.63000      -15.091356
 PM7 step=0.03, point=500
 Title

  C     0.00000002 +1    0.0000000 +1    0.0000001 +1     0     0     0
  H     1.08712174 +1    0.0000000 +1   -0.0000000 +1     1     0     0
  H     1.08732525 +1  109.5481577 +1   -0.0000000 +1     1     2     0
  H     1.08759388 +1  109.4043420 +1  120.1433226 +1     1     2     3
  C     1.63000200 -1  109.6195950 +1 -119.9787194 +1     1     2     3
  H     1.08729871 +1  109.2452669 +1   59.9775706 +1     5     1     2
  H     1.08723792 +1  109.2189044 +1  179.9765584 +1     5     1     2
  H     1.08724747 +1  109.2458948 +1  -60.0234971 +1     5     1     2
 

          Geometry optimization using EF

          DIAGONAL MATRIX USED AS START HESSIAN

 CYCLE:     1 TIME:   0.004 TIME LEFT:  2.00D  GRAD.:     4.330 HEAT: -13.30370
 CYCLE:     2 TIME:   0.000 TIME LEFT:  2.00D  GRAD.:     2.507 HEAT: -13.33122
 CYCLE:     3 TIME:   0.000 TIME LEFT:  2.00D  GRAD.:     1.572 HEAT: -13.35350
 CYCLE:     4 TIME:   0.000 TIME LEFT:  2.00D  GRAD.:     1.279 HEAT: -13.35793
 CYCLE:     5 TIME:   0.004 TIME LEFT:  2.00D  GRAD.:     0.699 HEAT: -13.36099

     GRADIENT =  0.69949 IS LESS THAN CUTOFF =  1.00000



          VARIABLE        FUNCTION
 :         1.66000      -13.360988
 PM7 step=0.03, point=500
 Title

  C     0.00000003 +1    0.0000001 +1    0.0000002 +1     0     0     0
  H     1.08498676 +1    0.0000000 +1   -0.0000000 +1     1     0     0
  H     1.08517450 +1  110.1063541 +1   -0.0000000 +1     1     2     0
  H     1.08544486 +1  109.9587355 +1  121.5329800 +1     1     2     3
  C     1.66000200 -1  109.0659808 +1 -119.2920766 +1     1     2     3
  H     1.08515151 +1  108.6760707 +1   59.9788263 +1     5     1     2
  H     1.08508966 +1  108.6495887 +1  179.9785187 +1     5     1     2
  H     1.08510015 +1  108.6764915 +1  -60.0215287 +1     5     1     2
 

          Geometry optimization using EF

          DIAGONAL MATRIX USED AS START HESSIAN

 CYCLE:     1 TIME:   0.000 TIME LEFT:  2.00D  GRAD.:     4.096 HEAT: -11.31743
 CYCLE:     2 TIME:   0.004 TIME LEFT:  2.00D  GRAD.:     2.430 HEAT: -11.34290
 CYCLE:     3 TIME:   0.000 TIME LEFT:  2.00D  GRAD.:     1.570 HEAT: -11.36491
 CYCLE:     4 TIME:   0.000 TIME LEFT:  2.00D  GRAD.:     1.281 HEAT: -11.36923
 CYCLE:     5 TIME:   0.000 TIME LEFT:  2.00D  GRAD.:     0.698 HEAT: -11.37208

     GRADIENT =  0.69764 IS LESS THAN CUTOFF =  1.00000



          VARIABLE        FUNCTION
 :         1.69000      -11.372077
 PM7 step=0.03, point=500
 Title

  C     0.00000003 +1    0.0000001 +1    0.0000002 +1     0     0     0
  H     1.08297608 +1    0.0000000 +1   -0.0000000 +1     1     0     0
  H     1.08314596 +1  110.6471730 +1   -0.0000000 +1     1     2     0
  H     1.08341718 +1  110.4985486 +1  122.9363941 +1     1     2     3
  C     1.69000200 -1  108.5167665 +1 -118.5937824 +1     1     2     3
  H     1.08312982 +1  108.1119320 +1   59.9805566 +1     5     1     2
  H     1.08306256 +1  108.0856331 +1  179.9782119 +1     5     1     2
  H     1.08306958 +1  108.1143443 +1  -60.0205901 +1     5     1     2
 

          Geometry optimization using EF

          DIAGONAL MATRIX USED AS START HESSIAN

 CYCLE:     1 TIME:   0.000 TIME LEFT:  2.00D  GRAD.:     3.865 HEAT: -9.117330
 CYCLE:     2 TIME:   0.000 TIME LEFT:  2.00D  GRAD.:     2.344 HEAT: -9.140733
 CYCLE:     3 TIME:   0.004 TIME LEFT:  2.00D  GRAD.:     1.532 HEAT: -9.162234
 CYCLE:     4 TIME:   0.000 TIME LEFT:  2.00D  GRAD.:     1.251 HEAT: -9.166414
 CYCLE:     5 TIME:   0.000 TIME LEFT:  2.00D  GRAD.:     0.687 HEAT: -9.169187

     GRADIENT =  0.68678 IS LESS THAN CUTOFF =  1.00000



          VARIABLE        FUNCTION
 :         1.72000       -9.169188
 PM7 step=0.03, point=500
 Title

  C     0.00000004 +1    0.0000001 +1    0.0000002 +1     0     0     0
  H     1.08110116 +1    0.0000000 +1   -0.0000000 +1     1     0     0
  H     1.08125769 +1  111.1761768 +1   -0.0000000 +1     1     2     0
  H     1.08152694 +1  111.0283549 +1  124.3535122 +1     1     2     3
  C     1.72000200 -1  107.9601580 +1 -117.8820467 +1     1     2     3
  H     1.08124266 +1  107.5547058 +1   59.9810698 +1     5     1     2
  H     1.08117783 +1  107.5273591 +1  179.9783870 +1     5     1     2
  H     1.08118324 +1  107.5557415 +1  -60.0206632 +1     5     1     2
 

          Geometry optimization using EF

          DIAGONAL MATRIX USED AS START HESSIAN

 CYCLE:     1 TIME:   0.000 TIME LEFT:  2.00D  GRAD.:     3.655 HEAT: -6.738714
 CYCLE:     2 TIME:   0.000 TIME LEFT:  2.00D  GRAD.:     2.245 HEAT: -6.760151
 CYCLE:     3 TIME:   0.000 TIME LEFT:  2.00D  GRAD.:     1.481 HEAT: -6.780637
 CYCLE:     4 TIME:   0.004 TIME LEFT:  2.00D  GRAD.:     1.221 HEAT: -6.784685
 CYCLE:     5 TIME:   0.000 TIME LEFT:  2.00D  GRAD.:     0.686 HEAT: -6.787266

     GRADIENT =  0.68621 IS LESS THAN CUTOFF =  1.00000



          VARIABLE        FUNCTION
 :         1.75000       -6.787266
 PM7 step=0.03, point=500
 Title

  C     0.00000005 +1    0.0000001 +1    0.0000003 +1     0     0     0
  H     1.07932449 +1    0.0000000 +1   -0.0000000 +1     1     0     0
  H     1.07946098 +1  111.6816318 +1   -0.0000000 +1     1     2     0
  H     1.07973331 +1  111.5364970 +1  125.7696445 +1     1     2     3
  C     1.75000200 -1  107.4182126 +1 -117.1761132 +1     1     2     3
  H     1.07945309 +1  107.0065273 +1   59.9815073 +1     5     1     2
  H     1.07938868 +1  106.9783996 +1  179.9784831 +1     5     1     2
  H     1.07939128 +1  107.0069726 +1  -60.0206390 +1     5     1     2
 

          Geometry optimization using EF

          DIAGONAL MATRIX USED AS START HESSIAN

 CYCLE:     1 TIME:   0.004 TIME LEFT:  2.00D  GRAD.:     3.442 HEAT: -4.208174
 CYCLE:     2 TIME:   0.000 TIME LEFT:  2.00D  GRAD.:     2.156 HEAT: -4.227773
 CYCLE:     3 TIME:   0.000 TIME LEFT:  2.00D  GRAD.:     1.426 HEAT: -4.247552
 CYCLE:     4 TIME:   0.000 TIME LEFT:  2.00D  GRAD.:     1.170 HEAT: -4.251402
 CYCLE:     5 TIME:   0.000 TIME LEFT:  2.00D  GRAD.:     0.667 HEAT: -4.253890

     GRADIENT =  0.66688 IS LESS THAN CUTOFF =  1.00000



          VARIABLE        FUNCTION
 :         1.78000       -4.253891
 PM7 step=0.03, point=500
 Title

  C     0.00000005 +1    0.0000001 +1    0.0000003 +1     0     0     0
  H     1.07767434 +1    0.0000000 +1   -0.0000000 +1     1     0     0
  H     1.07780041 +1  112.1709627 +1   -0.0000000 +1     1     2     0
  H     1.07806722 +1  112.0270574 +1  127.1890784 +1     1     2     3
  C     1.78000200 -1  106.8792990 +1 -116.4668415 +1     1     2     3
  H     1.07779167 +1  106.4673227 +1   59.9790274 +1     5     1     2
  H     1.07772880 +1  106.4371437 +1  179.9764492 +1     5     1     2
  H     1.07773240 +1  106.4663149 +1  -60.0235148 +1     5     1     2
 

          Geometry optimization using EF

          DIAGONAL MATRIX USED AS START HESSIAN

 CYCLE:     1 TIME:   0.000 TIME LEFT:  2.00D  GRAD.:     3.260 HEAT: -1.547265
 CYCLE:     2 TIME:   0.000 TIME LEFT:  2.00D  GRAD.:     2.070 HEAT: -1.565249
 CYCLE:     3 TIME:   0.004 TIME LEFT:  2.00D  GRAD.:     1.378 HEAT: -1.584180
 CYCLE:     4 TIME:   0.000 TIME LEFT:  2.00D  GRAD.:     1.144 HEAT: -1.587862
 CYCLE:     5 TIME:   0.000 TIME LEFT:  2.00D  GRAD.:     0.668 HEAT: -1.590273

     GRADIENT =  0.66762 IS LESS THAN CUTOFF =  1.00000



          VARIABLE        FUNCTION
 :         1.81000       -1.590273
 PM7 step=0.03, point=500
 Title

  C     0.00000006 +1    0.0000001 +1    0.0000004 +1     0     0     0
  H     1.07611595 +1    0.0000000 +1   -0.0000000 +1     1     0     0
  H     1.07622457 +1  112.6418727 +1   -0.0000000 +1     1     2     0
  H     1.07648841 +1  112.5004764 +1  128.6179068 +1     1     2     3
  C     1.81000200 -1  106.3453251 +1 -115.7467773 +1     1     2     3
  H     1.07621955 +1  105.9328100 +1   59.9765610 +1     5     1     2
  H     1.07616013 +1  105.9024681 +1  179.9734641 +1     5     1     2
  H     1.07616580 +1  105.9322598 +1  -60.0263212 +1     5     1     2
 

          Geometry optimization using EF

          DIAGONAL MATRIX USED AS START HESSIAN

 CYCLE:     1 TIME:   0.000 TIME LEFT:  2.00D  GRAD.:     3.067 HEAT:  1.227056
 CYCLE:     2 TIME:   0.000 TIME LEFT:  2.00D  GRAD.:     1.974 HEAT:  1.210745
 CYCLE:     3 TIME:   0.004 TIME LEFT:  2.00D  GRAD.:     1.307 HEAT:  1.192881
 CYCLE:     4 TIME:   0.000 TIME LEFT:  2.00D  GRAD.:     1.080 HEAT:  1.189416
 CYCLE:     5 TIME:   0.000 TIME LEFT:  2.00D  GRAD.:     0.643 HEAT:  1.187060

     GRADIENT =  0.64293 IS LESS THAN CUTOFF =  1.00000



          VARIABLE        FUNCTION
 :         1.84000        1.187060
 PM7 step=0.03, point=500
 Title

  C     0.00000007 +1    0.0000001 +1    0.0000004 +1     0     0     0
  H     1.07466960 +1    0.0000000 +1   -0.0000000 +1     1     0     0
  H     1.07476715 +1  113.0933119 +1   -0.0000000 +1     1     2     0
  H     1.07502515 +1  112.9552284 +1  130.0388411 +1     1     2     3
  C     1.84000200 -1  105.8186790 +1 -115.0357432 +1     1     2     3
  H     1.07476468 +1  105.4113677 +1   59.9717739 +1     5     1     2
  H     1.07470563 +1  105.3785537 +1  179.9688954 +1     5     1     2
  H     1.07471050 +1  105.4088310 +1  -60.0317910 +1     5     1     2
 

          Geometry optimization using EF

          DIAGONAL MATRIX USED AS START HESSIAN

 CYCLE:     1 TIME:   0.000 TIME LEFT:  2.00D  GRAD.:     2.906 HEAT:  4.102626
 CYCLE:     2 TIME:   0.000 TIME LEFT:  2.00D  GRAD.:     1.890 HEAT:  4.087691
 CYCLE:     3 TIME:   0.000 TIME LEFT:  2.00D  GRAD.:     1.254 HEAT:  4.070754
 CYCLE:     4 TIME:   0.004 TIME LEFT:  2.00D  GRAD.:     1.045 HEAT:  4.067449
 CYCLE:     5 TIME:   0.000 TIME LEFT:  2.00D  GRAD.:     0.633 HEAT:  4.065211

     GRADIENT =  0.63256 IS LESS THAN CUTOFF =  1.00000



          VARIABLE        FUNCTION
 :         1.87000        4.065210
 PM7 step=0.03, point=500
 Title

  C     0.00000007 +1    0.0000001 +1    0.0000004 +1     0     0     0
  H     1.07329823 +1    0.0000000 +1   -0.0000000 +1     1     0     0
  H     1.07338242 +1  113.5229458 +1   -0.0000000 +1     1     2     0
  H     1.07363469 +1  113.3881657 +1  131.4570504 +1     1     2     3
  C     1.87000200 -1  105.3062109 +1 -114.3273080 +1     1     2     3
  H     1.07338323 +1  104.8970021 +1   59.9676980 +1     5     1     2
  H     1.07332578 +1  104.8631399 +1  179.9642813 +1     5     1     2
  H     1.07332987 +1  104.8937136 +1  -60.0363388 +1     5     1     2
 

          Geometry optimization using EF

          DIAGONAL MATRIX USED AS START HESSIAN

 CYCLE:     1 TIME:   0.004 TIME LEFT:  2.00D  GRAD.:     2.735 HEAT:  7.068372
 CYCLE:     2 TIME:   0.000 TIME LEFT:  2.00D  GRAD.:     1.804 HEAT:  7.045380
 CYCLE:     3 TIME:   0.000 TIME LEFT:  2.00D  GRAD.:     1.152 HEAT:  7.029295
 CYCLE:     4 TIME:   0.000 TIME LEFT:  2.00D  GRAD.:     0.942 HEAT:  7.026329

     GRADIENT =  0.94189 IS LESS THAN CUTOFF =  1.00000



          VARIABLE        FUNCTION
 :         1.90000        7.026329
 PM7 step=0.03, point=500
 Title

  C     0.00000008 +1    0.0000002 +1    0.0000005 +1     0     0     0
  H     1.07178172 +1    0.0000000 +1   -0.0000000 +1     1     0     0
  H     1.07178236 +1  113.8628830 +1   -0.0000000 +1     1     2     0
  H     1.07211233 +1  113.7308011 +1  132.6971316 +1     1     2     3
  C     1.90000200 -1  104.9623383 +1 -113.8522970 +1     1     2     3
  H     1.07184334 +1  104.4187004 +1   59.9632922 +1     5     1     2
  H     1.07179032 +1  104.3801588 +1  179.9579429 +1     5     1     2
  H     1.07179350 +1  104.4101891 +1  -60.0414965 +1     5     1     2
 

          Geometry optimization using EF

          DIAGONAL MATRIX USED AS START HESSIAN

 CYCLE:     1 TIME:   0.000 TIME LEFT:  2.00D  GRAD.:     2.512 HEAT:  10.11257
 CYCLE:     2 TIME:   0.000 TIME LEFT:  2.00D  GRAD.:     1.842 HEAT:  10.09942
 CYCLE:     3 TIME:   0.000 TIME LEFT:  2.00D  GRAD.:     1.025 HEAT:  10.07829
 CYCLE:     4 TIME:   0.004 TIME LEFT:  2.00D  GRAD.:     0.863 HEAT:  10.07577

     GRADIENT =  0.86318 IS LESS THAN CUTOFF =  1.00000



          VARIABLE        FUNCTION
 :         1.93000       10.075772
 PM7 step=0.03, point=500
 Title

  C     0.00000008 +1    0.0000002 +1    0.0000005 +1     0     0     0
  H     1.07068201 +1    0.0000000 +1   -0.0000000 +1     1     0     0
  H     1.07075860 +1  114.2710593 +1   -0.0000000 +1     1     2     0
  H     1.07108708 +1  114.1147948 +1  134.0659068 +1     1     2     3
  C     1.93000200 -1  104.4966639 +1 -113.1372398 +1     1     2     3
  H     1.07075008 +1  103.8943990 +1   59.9562554 +1     5     1     2
  H     1.07069119 +1  103.8402719 +1  179.9550701 +1     5     1     2
  H     1.07070054 +1  103.8732963 +1  -60.0486992 +1     5     1     2
 

          Geometry optimization using EF

          DIAGONAL MATRIX USED AS START HESSIAN

 CYCLE:     1 TIME:   0.004 TIME LEFT:  2.00D  GRAD.:     2.367 HEAT:  13.23065
 CYCLE:     2 TIME:   0.000 TIME LEFT:  2.00D  GRAD.:     1.721 HEAT:  13.21905
 CYCLE:     3 TIME:   0.000 TIME LEFT:  2.00D  GRAD.:     1.143 HEAT:  13.19989
 CYCLE:     4 TIME:   0.000 TIME LEFT:  2.00D  GRAD.:     0.936 HEAT:  13.19706

     GRADIENT =  0.93590 IS LESS THAN CUTOFF =  1.00000



          VARIABLE        FUNCTION
 :         1.96000       13.197064
 PM7 step=0.03, point=500
 Title

  C     0.00000009 +1    0.0000002 +1    0.0000006 +1     0     0     0
  H     1.06948289 +1    0.0000000 +1   -0.0000000 +1     1     0     0
  H     1.06951452 +1  114.6516239 +1   -0.0000000 +1     1     2     0
  H     1.06983278 +1  114.4971505 +1  135.5002470 +1     1     2     3
  C     1.96000200 -1  104.0017523 +1 -112.4386287 +1     1     2     3
  H     1.06953027 +1  103.4027040 +1   59.9525060 +1     5     1     2
  H     1.06947869 +1  103.3474974 +1  179.9484093 +1     5     1     2
  H     1.06948628 +1  103.3837611 +1  -60.0535326 +1     5     1     2
 

          Geometry optimization using EF

          DIAGONAL MATRIX USED AS START HESSIAN

 CYCLE:     1 TIME:   0.000 TIME LEFT:  2.00D  GRAD.:     2.140 HEAT:  16.41220
 CYCLE:     2 TIME:   0.000 TIME LEFT:  2.00D  GRAD.:     1.602 HEAT:  16.40224
 CYCLE:     3 TIME:   0.000 TIME LEFT:  2.00D  GRAD.:     0.990 HEAT:  16.38431

     GRADIENT =  0.98964 IS LESS THAN CUTOFF =  1.00000



          VARIABLE        FUNCTION
 :         1.99000       16.384312
 PM7 step=0.03, point=500
 Title

  C     0.00000010 +1    0.0000002 +1    0.0000006 +1     0     0     0
  H     1.06845704 +1    0.0000000 +1   -0.0000000 +1     1     0     0
  H     1.06848395 +1  114.9452519 +1   -0.0000000 +1     1     2     0
  H     1.06877477 +1  114.7957296 +1  136.6791243 +1     1     2     3
  C     1.99000200 -1  103.6492878 +1 -111.9443838 +1     1     2     3
  H     1.06849213 +1  102.9790896 +1   59.9474668 +1     5     1     2
  H     1.06843799 +1  102.9204028 +1  179.9453398 +1     5     1     2
  H     1.06844853 +1  102.9576934 +1  -60.0602395 +1     5     1     2
 

          Geometry optimization using EF

          DIAGONAL MATRIX USED AS START HESSIAN

 CYCLE:     1 TIME:   0.000 TIME LEFT:  2.00D  GRAD.:     2.240 HEAT:  19.65931
 CYCLE:     2 TIME:   0.000 TIME LEFT:  2.00D  GRAD.:     1.734 HEAT:  19.64801
 CYCLE:     3 TIME:   0.004 TIME LEFT:  2.00D  GRAD.:     0.992 HEAT:  19.62525

     GRADIENT =  0.99236 IS LESS THAN CUTOFF =  1.00000



          VARIABLE        FUNCTION
 :         2.02000       19.625250
 PM7 step=0.03, point=500
 Title

  C     0.00000010 +1    0.0000002 +1    0.0000006 +1     0     0     0
  H     1.06750095 +1    0.0000000 +1   -0.0000000 +1     1     0     0
  H     1.06753329 +1  115.2946407 +1   -0.0000000 +1     1     2     0
  H     1.06789208 +1  115.1299621 +1  138.0077497 +1     1     2     3
  C     2.02000200 -1  103.2260219 +1 -111.2468476 +1     1     2     3
  H     1.06754055 +1  102.4818253 +1   59.9454359 +1     5     1     2
  H     1.06748512 +1  102.4134804 +1  179.9404427 +1     5     1     2
  H     1.06748288 +1  102.4520729 +1  -60.0629497 +1     5     1     2
 

          Geometry optimization using EF

          DIAGONAL MATRIX USED AS START HESSIAN

 CYCLE:     1 TIME:   0.000 TIME LEFT:  2.00D  GRAD.:     2.055 HEAT:  22.94253
 CYCLE:     2 TIME:   0.000 TIME LEFT:  2.00D  GRAD.:     1.600 HEAT:  22.93271
 CYCLE:     3 TIME:   0.000 TIME LEFT:  2.00D  GRAD.:     0.992 HEAT:  22.91178

     GRADIENT =  0.99198 IS LESS THAN CUTOFF =  1.00000



          VARIABLE        FUNCTION
 :         2.05000       22.911777
 PM7 step=0.03, point=500
 Title

  C     0.00000011 +1    0.0000002 +1    0.0000007 +1     0     0     0
  H     1.06658782 +1    0.0000000 +1   -0.0000000 +1     1     0     0
  H     1.06664969 +1  115.6082762 +1   -0.0000000 +1     1     2     0
  H     1.06691745 +1  115.4469339 +1  139.3454192 +1     1     2     3
  C     2.05000200 -1  102.7846523 +1 -110.6246698 +1     1     2     3
  H     1.06661252 +1  102.0406690 +1   59.9377576 +1     5     1     2
  H     1.06656704 +1  101.9648411 +1  179.9388660 +1     5     1     2
  H     1.06658457 +1  102.0088121 +1  -60.0711962 +1     5     1     2
 

          Geometry optimization using EF

          DIAGONAL MATRIX USED AS START HESSIAN

 CYCLE:     1 TIME:   0.000 TIME LEFT:  2.00D  GRAD.:     1.971 HEAT:  26.26382
 CYCLE:     2 TIME:   0.004 TIME LEFT:  2.00D  GRAD.:     1.562 HEAT:  26.25464
 CYCLE:     3 TIME:   0.000 TIME LEFT:  2.00D  GRAD.:     0.917 HEAT:  26.23359

     GRADIENT =  0.91677 IS LESS THAN CUTOFF =  1.00000



          VARIABLE        FUNCTION
 :         2.08000       26.233584
 PM7 step=0.03, point=500
 Title

  C     0.00000012 +1    0.0000002 +1    0.0000007 +1     0     0     0
  H     1.06578775 +1    0.0000000 +1   -0.0000000 +1     1     0     0
  H     1.06579538 +1  115.9265259 +1   -0.0000000 +1     1     2     0
  H     1.06613239 +1  115.7650257 +1  140.6920423 +1     1     2     3
  C     2.08000200 -1  102.3267706 +1 -109.9086927 +1     1     2     3
  H     1.06581207 +1  101.5835698 +1   59.9357031 +1     5     1     2
  H     1.06575289 +1  101.5028461 +1  179.9297973 +1     5     1     2
  H     1.06574508 +1  101.5476548 +1  -60.0738672 +1     5     1     2
 

          Geometry optimization using EF

          DIAGONAL MATRIX USED AS START HESSIAN

 CYCLE:     1 TIME:   0.004 TIME LEFT:  2.00D  GRAD.:     1.831 HEAT:  29.60831
 CYCLE:     2 TIME:   0.000 TIME LEFT:  2.00D  GRAD.:     1.444 HEAT:  29.60025
 CYCLE:     3 TIME:   0.000 TIME LEFT:  2.00D  GRAD.:     0.866 HEAT:  29.58175

     GRADIENT =  0.86563 IS LESS THAN CUTOFF =  1.00000



          VARIABLE        FUNCTION
 :         2.11000       29.581752
 PM7 step=0.03, point=500
 Title

  C     0.00000012 +1    0.0000003 +1    0.0000007 +1     0     0     0
  H     1.06501214 +1    0.0000000 +1   -0.0000000 +1     1     0     0
  H     1.06507856 +1  116.1990227 +1   -0.0000000 +1     1     2     0
  H     1.06529483 +1  116.0487963 +1  141.9762355 +1     1     2     3
  C     2.11000200 -1  101.9047392 +1 -109.3126896 +1     1     2     3
  H     1.06502996 +1  101.1765388 +1   59.9263443 +1     5     1     2
  H     1.06499224 +1  101.0926050 +1  179.9302377 +1     5     1     2
  H     1.06501397 +1  101.1397576 +1  -60.0838257 +1     5     1     2
 

          Geometry optimization using EF

          DIAGONAL MATRIX USED AS START HESSIAN

 CYCLE:     1 TIME:   0.000 TIME LEFT:  2.00D  GRAD.:     1.806 HEAT:  32.97117
 CYCLE:     2 TIME:   0.000 TIME LEFT:  2.00D  GRAD.:     1.437 HEAT:  32.96332
 CYCLE:     3 TIME:   0.000 TIME LEFT:  2.00D  GRAD.:     0.814 HEAT:  32.94448

     GRADIENT =  0.81430 IS LESS THAN CUTOFF =  1.00000



          VARIABLE        FUNCTION
 :         2.14000       32.944482
 PM7 step=0.03, point=500
 Title

  C     0.00000013 +1    0.0000003 +1    0.0000008 +1     0     0     0
  H     1.06432931 +1    0.0000000 +1   -0.0000000 +1     1     0     0
  H     1.06431558 +1  116.4754709 +1   -0.0000000 +1     1     2     0
  H     1.06463126 +1  116.3264958 +1  143.2508545 +1     1     2     3
  C     2.14000200 -1  101.4845541 +1 -108.6449010 +1     1     2     3
  H     1.06434853 +1  100.7505333 +1   59.9230992 +1     5     1     2
  H     1.06427962 +1  100.6615046 +1  179.9166910 +1     5     1     2
  H     1.06427224 +1  100.7068533 +1  -60.0864199 +1     5     1     2
 

          Geometry optimization using EF

          DIAGONAL MATRIX USED AS START HESSIAN

 CYCLE:     1 TIME:   0.000 TIME LEFT:  2.00D  GRAD.:     1.703 HEAT:  36.33576
 CYCLE:     2 TIME:   0.000 TIME LEFT:  2.00D  GRAD.:     1.359 HEAT:  36.32863
 CYCLE:     3 TIME:   0.004 TIME LEFT:  2.00D  GRAD.:     0.793 HEAT:  36.31124

     GRADIENT =  0.79347 IS LESS THAN CUTOFF =  1.00000



          VARIABLE        FUNCTION
 :         2.17000       36.311245
 PM7 step=0.03, point=500
 Title

  C     0.00000014 +1    0.0000003 +1    0.0000008 +1     0     0     0
  H     1.06364399 +1    0.0000000 +1   -0.0000000 +1     1     0     0
  H     1.06371515 +1  116.7231576 +1   -0.0000000 +1     1     2     0
  H     1.06388862 +1  116.5835997 +1  144.5206734 +1     1     2     3
  C     2.17000200 -1  101.0794134 +1 -108.0391539 +1     1     2     3
  H     1.06365521 +1  100.3491957 +1   59.9143747 +1     5     1     2
  H     1.06362209 +1  100.2591994 +1  179.9184055 +1     5     1     2
  H     1.06364788 +1  100.3069216 +1  -60.0984816 +1     5     1     2
 

          Geometry optimization using EF

          DIAGONAL MATRIX USED AS START HESSIAN

 CYCLE:     1 TIME:   0.000 TIME LEFT:  2.00D  GRAD.:     1.638 HEAT:  39.69397
 CYCLE:     2 TIME:   0.004 TIME LEFT:  2.00D  GRAD.:     1.311 HEAT:  39.68734
 CYCLE:     3 TIME:   0.000 TIME LEFT:  2.00D  GRAD.:     0.730 HEAT:  39.67067

     GRADIENT =  0.73027 IS LESS THAN CUTOFF =  1.00000



          VARIABLE        FUNCTION
 :         2.20000       39.670673
 PM7 step=0.03, point=500
 Title

  C     0.00000014 +1    0.0000003 +1    0.0000009 +1     0     0     0
  H     1.06308142 +1    0.0000000 +1   -0.0000000 +1     1     0     0
  H     1.06305378 +1  116.9615828 +1   -0.0000000 +1     1     2     0
  H     1.06334229 +1  116.8262006 +1  145.7271115 +1     1     2     3
  C     2.20000200 -1  100.6860004 +1 -107.4192796 +1     1     2     3
  H     1.06309719 +1   99.9609393 +1   59.9095763 +1     5     1     2
  H     1.06302551 +1   99.8647476 +1  179.9039016 +1     5     1     2
  H     1.06301557 +1   99.9116577 +1  -60.1005328 +1     5     1     2
 

          Geometry optimization using EF

          DIAGONAL MATRIX USED AS START HESSIAN

 CYCLE:     1 TIME:   0.004 TIME LEFT:  2.00D  GRAD.:     1.586 HEAT:  43.03434
 CYCLE:     2 TIME:   0.000 TIME LEFT:  2.00D  GRAD.:     1.273 HEAT:  43.02806
 CYCLE:     3 TIME:   0.000 TIME LEFT:  2.00D  GRAD.:     0.729 HEAT:  43.01202

     GRADIENT =  0.72881 IS LESS THAN CUTOFF =  1.00000



          VARIABLE        FUNCTION
 :         2.23000       43.012025
 PM7 step=0.03, point=500
 Title

  C     0.00000015 +1    0.0000003 +1    0.0000009 +1     0     0     0
  H     1.06246653 +1    0.0000000 +1   -0.0000000 +1     1     0     0
  H     1.06254331 +1  117.1830071 +1   -0.0000000 +1     1     2     0
  H     1.06267733 +1  117.0547864 +1  146.9563709 +1     1     2     3
  C     2.23000200 -1  100.3027776 +1 -106.8230915 +1     1     2     3
  H     1.06247427 +1   99.5730626 +1   59.9014735 +1     5     1     2
  H     1.06244840 +1   99.4765072 +1  179.9045611 +1     5     1     2
  H     1.06247290 +1   99.5251950 +1  -60.1129118 +1     5     1     2
 

          Geometry optimization using EF

          DIAGONAL MATRIX USED AS START HESSIAN

 CYCLE:     1 TIME:   0.004 TIME LEFT:  2.00D  GRAD.:     1.497 HEAT:  46.34535
 CYCLE:     2 TIME:   0.000 TIME LEFT:  2.00D  GRAD.:     1.217 HEAT:  46.33969
 CYCLE:     3 TIME:   0.000 TIME LEFT:  2.00D  GRAD.:     0.686 HEAT:  46.32427

     GRADIENT =  0.68641 IS LESS THAN CUTOFF =  1.00000



          VARIABLE        FUNCTION
 :         2.26000       46.324268
 PM7 step=0.03, point=500
 Title

  C     0.00000016 +1    0.0000003 +1    0.0000010 +1     0     0     0
  H     1.06198628 +1    0.0000000 +1   -0.0000000 +1     1     0     0
  H     1.06193804 +1  117.4038072 +1   -0.0000000 +1     1     2     0
  H     1.06220798 +1  117.2810084 +1  148.1863923 +1     1     2     3
  C     2.26000200 -1   99.9065370 +1 -106.1833599 +1     1     2     3
  H     1.06200034 +1   99.1866214 +1   59.8947580 +1     5     1     2
  H     1.06191918 +1   99.0882133 +1  179.8896069 +1     5     1     2
  H     1.06190992 +1   99.1369796 +1  -60.1123836 +1     5     1     2
 

          Geometry optimization using EF

          DIAGONAL MATRIX USED AS START HESSIAN

 CYCLE:     1 TIME:   0.000 TIME LEFT:  2.00D  GRAD.:     1.383 HEAT:  49.61674
 CYCLE:     2 TIME:   0.000 TIME LEFT:  2.00D  GRAD.:     1.121 HEAT:  49.61185
 CYCLE:     3 TIME:   0.004 TIME LEFT:  2.00D  GRAD.:     0.646 HEAT:  49.59846

     GRADIENT =  0.64589 IS LESS THAN CUTOFF =  1.00000



          VARIABLE        FUNCTION
 :         2.29000       49.598458
 PM7 step=0.03, point=500
 Title

  C     0.00000016 +1    0.0000003 +1    0.0000010 +1     0     0     0
  H     1.06146332 +1    0.0000000 +1   -0.0000000 +1     1     0     0
  H     1.06155889 +1  117.5922578 +1   -0.0000000 +1     1     2     0
  H     1.06163121 +1  117.4791405 +1  149.3388461 +1     1     2     3
  C     2.29000200 -1   99.5391640 +1 -105.6229135 +1     1     2     3
  H     1.06147030 +1   98.8406067 +1   59.8878781 +1     5     1     2
  H     1.06145938 +1   98.7425945 +1  179.8920170 +1     5     1     2
  H     1.06148623 +1   98.7925899 +1  -60.1291293 +1     5     1     2
 

          Geometry optimization using EF

          DIAGONAL MATRIX USED AS START HESSIAN

 CYCLE:     1 TIME:   0.000 TIME LEFT:  2.00D  GRAD.:     1.352 HEAT:  52.84278
 CYCLE:     2 TIME:   0.004 TIME LEFT:  2.00D  GRAD.:     1.101 HEAT:  52.83812
 CYCLE:     3 TIME:   0.000 TIME LEFT:  2.00D  GRAD.:     0.614 HEAT:  52.82510

     GRADIENT =  0.61384 IS LESS THAN CUTOFF =  1.00000



          VARIABLE        FUNCTION
 :         2.32000       52.825097
 PM7 step=0.03, point=500
 Title

  C     0.00000017 +1    0.0000004 +1    0.0000011 +1     0     0     0
  H     1.06107807 +1    0.0000000 +1   -0.0000000 +1     1     0     0
  H     1.06099518 +1  117.7782795 +1   -0.0000000 +1     1     2     0
  H     1.06126807 +1  117.6711748 +1  150.4734675 +1     1     2     3
  C     2.32000200 -1   99.1829346 +1 -105.0472522 +1     1     2     3
  H     1.06109443 +1   98.4883030 +1   59.8793044 +1     5     1     2
  H     1.06099995 +1   98.3878070 +1  179.8731567 +1     5     1     2
  H     1.06099167 +1   98.4364830 +1  -60.1262946 +1     5     1     2
 

          Geometry optimization using EF

          DIAGONAL MATRIX USED AS START HESSIAN

 CYCLE:     1 TIME:   0.004 TIME LEFT:  2.00D  GRAD.:     1.278 HEAT:  56.01228
 CYCLE:     2 TIME:   0.000 TIME LEFT:  2.00D  GRAD.:     1.041 HEAT:  56.00807
 CYCLE:     3 TIME:   0.000 TIME LEFT:  2.00D  GRAD.:     0.587 HEAT:  55.99615

     GRADIENT =  0.58689 IS LESS THAN CUTOFF =  1.00000



          VARIABLE        FUNCTION
 :         2.35000       55.996152
 PM7 step=0.03, point=500
 Title

  C     0.00000018 +1    0.0000004 +1    0.0000012 +1     0     0     0
  H     1.06060822 +1    0.0000000 +1   -0.0000000 +1     1     0     0
  H     1.06073235 +1  117.9442683 +1   -0.0000000 +1     1     2     0
  H     1.06073812 +1  117.8428998 +1  151.5710631 +1     1     2     3
  C     2.35000200 -1   98.8423228 +1 -104.5058781 +1     1     2     3
  H     1.06061289 +1   98.1560131 +1   59.8713525 +1     5     1     2
  H     1.06062202 +1   98.0564657 +1  179.8781064 +1     5     1     2
  H     1.06064843 +1   98.1054991 +1  -60.1454836 +1     5     1     2
 

          Geometry optimization using EF

          DIAGONAL MATRIX USED AS START HESSIAN

 CYCLE:     1 TIME:   0.000 TIME LEFT:  2.00D  GRAD.:     1.230 HEAT:  59.11951
 CYCLE:     2 TIME:   0.000 TIME LEFT:  2.00D  GRAD.:     1.003 HEAT:  59.11561
 CYCLE:     3 TIME:   0.000 TIME LEFT:  2.00D  GRAD.:     0.559 HEAT:  59.10433

     GRADIENT =  0.55932 IS LESS THAN CUTOFF =  1.00000



          VARIABLE        FUNCTION
 :         2.38000       59.104335
 PM7 step=0.03, point=500
 Title

  C     0.00000019 +1    0.0000004 +1    0.0000012 +1     0     0     0
  H     1.06031301 +1    0.0000000 +1   -0.0000000 +1     1     0     0
  H     1.06018843 +1  118.1038484 +1   -0.0000000 +1     1     2     0
  H     1.06048050 +1  118.0084322 +1  152.6346310 +1     1     2     3
  C     2.38000200 -1   98.5137020 +1 -103.9717119 +1     1     2     3
  H     1.06033346 +1   97.8336435 +1   59.8626356 +1     5     1     2
  H     1.06021919 +1   97.7304111 +1  179.8543122 +1     5     1     2
  H     1.06021133 +1   97.7788512 +1  -60.1422005 +1     5     1     2
 

          Geometry optimization using EF

          DIAGONAL MATRIX USED AS START HESSIAN

 CYCLE:     1 TIME:   0.000 TIME LEFT:  2.00D  GRAD.:     1.177 HEAT:  62.15761
 CYCLE:     2 TIME:   0.000 TIME LEFT:  2.00D  GRAD.:     0.958 HEAT:  62.15401

     GRADIENT =  0.95836 IS LESS THAN CUTOFF =  1.00000



          VARIABLE        FUNCTION
 :         2.41000       62.154015
 PM7 step=0.03, point=500
 Title

  C     0.00000019 +1    0.0000004 +1    0.0000012 +1     0     0     0
  H     1.06019793 +1    0.0000000 +1   -0.0000000 +1     1     0     0
  H     1.06015162 +1  118.1262921 +1   -0.0000000 +1     1     2     0
  H     1.06034884 +1  118.0314697 +1  152.8070923 +1     1     2     3
  C     2.41000200 -1   98.4694539 +1 -103.9029773 +1     1     2     3
  H     1.06022338 +1   97.7785089 +1   59.8608502 +1     5     1     2
  H     1.06014165 +1   97.6760640 +1  179.8582245 +1     5     1     2
  H     1.06014093 +1   97.7244235 +1  -60.1475063 +1     5     1     2
 

          Geometry optimization using EF

          DIAGONAL MATRIX USED AS START HESSIAN

 CYCLE:     1 TIME:   0.000 TIME LEFT:  2.00D  GRAD.:     1.995 HEAT:  65.14681
 CYCLE:     2 TIME:   0.000 TIME LEFT:  2.00D  GRAD.:     1.579 HEAT:  65.13714
 CYCLE:     3 TIME:   0.004 TIME LEFT:  2.00D  GRAD.:     0.761 HEAT:  65.11464

     GRADIENT =  0.76089 IS LESS THAN CUTOFF =  1.00000



          VARIABLE        FUNCTION
 :         2.44000       65.114640
 PM7 step=0.03, point=500
 Title

  C     0.00000020 +1    0.0000004 +1    0.0000013 +1     0     0     0
  H     1.05959515 +1    0.0000000 +1   -0.0000000 +1     1     0     0
  H     1.05962159 +1  118.3243532 +1   -0.0000000 +1     1     2     0
  H     1.05972150 +1  118.2248930 +1  154.2247153 +1     1     2     3
  C     2.44000200 -1   98.1913401 +1 -103.4100550 +1     1     2     3
  H     1.05956590 +1   97.2607420 +1   59.8530859 +1     5     1     2
  H     1.05954700 +1   97.1467247 +1  179.8542811 +1     5     1     2
  H     1.05956323 +1   97.1968310 +1  -60.1602587 +1     5     1     2
 

          Geometry optimization using EF

          DIAGONAL MATRIX USED AS START HESSIAN

 CYCLE:     1 TIME:   0.004 TIME LEFT:  2.00D  GRAD.:     1.288 HEAT:  68.01794
 CYCLE:     2 TIME:   0.000 TIME LEFT:  2.00D  GRAD.:     1.087 HEAT:  68.01337
 CYCLE:     3 TIME:   0.000 TIME LEFT:  2.00D  GRAD.:     0.594 HEAT:  67.99726

     GRADIENT =  0.59403 IS LESS THAN CUTOFF =  1.00000



          VARIABLE        FUNCTION
 :         2.47000       67.997258
 PM7 step=0.03, point=500
 Title

  C     0.00000021 +1    0.0000004 +1    0.0000014 +1     0     0     0
  H     1.05939872 +1    0.0000000 +1   -0.0000000 +1     1     0     0
  H     1.05937960 +1  118.5233949 +1   -0.0000000 +1     1     2     0
  H     1.05962686 +1  118.4048169 +1  155.4981736 +1     1     2     3
  C     2.47000200 -1   97.7395125 +1 -102.5087033 +1     1     2     3
  H     1.05945667 +1   96.8991134 +1   59.8352866 +1     5     1     2
  H     1.05935575 +1   96.7645621 +1  179.8361480 +1     5     1     2
  H     1.05936618 +1   96.8185250 +1  -60.1712855 +1     5     1     2
 

          Geometry optimization using EF

          DIAGONAL MATRIX USED AS START HESSIAN

 CYCLE:     1 TIME:   0.004 TIME LEFT:  2.00D  GRAD.:     1.016 HEAT:  70.81371
 CYCLE:     2 TIME:   0.000 TIME LEFT:  2.00D  GRAD.:     0.824 HEAT:  70.81090

     GRADIENT =  0.82386 IS LESS THAN CUTOFF =  1.00000



          VARIABLE        FUNCTION
 :         2.50000       70.810899
 PM7 step=0.03, point=500
 Title

  C     0.00000021 +1    0.0000004 +1    0.0000014 +1     0     0     0
  H     1.05926475 +1    0.0000000 +1   -0.0000000 +1     1     0     0
  H     1.05928318 +1  118.5362665 +1   -0.0000000 +1     1     2     0
  H     1.05945601 +1  118.4232169 +1  155.6672169 +1     1     2     3
  C     2.50000200 -1   97.6921337 +1 -102.4534738 +1     1     2     3
  H     1.05931195 +1   96.8593883 +1   59.8356350 +1     5     1     2
  H     1.05924146 +1   96.7262808 +1  179.8363765 +1     5     1     2
  H     1.05925302 +1   96.7817738 +1  -60.1740015 +1     5     1     2
 

          Geometry optimization using EF

          DIAGONAL MATRIX USED AS START HESSIAN

 CYCLE:     1 TIME:   0.000 TIME LEFT:  2.00D  GRAD.:     1.668 HEAT:  73.55409
 CYCLE:     2 TIME:   0.000 TIME LEFT:  2.00D  GRAD.:     1.334 HEAT:  73.54695
 CYCLE:     3 TIME:   0.004 TIME LEFT:  2.00D  GRAD.:     0.697 HEAT:  73.52885

     GRADIENT =  0.69651 IS LESS THAN CUTOFF =  1.00000



          VARIABLE        FUNCTION
 :         2.53000       73.528853
 PM7 step=0.03, point=500
 Title

  C     0.00000021 +1    0.0000004 +1    0.0000014 +1     0     0     0
  H     1.05879888 +1    0.0000000 +1   -0.0000000 +1     1     0     0
  H     1.05879361 +1  118.6816630 +1   -0.0000000 +1     1     2     0
  H     1.05888183 +1  118.5874582 +1  157.0464564 +1     1     2     3
  C     2.53000200 -1   97.3892669 +1 -102.0203534 +1     1     2     3
  H     1.05876452 +1   96.4277880 +1   59.8293561 +1     5     1     2
  H     1.05874127 +1   96.2902278 +1  179.8309216 +1     5     1     2
  H     1.05875287 +1   96.3529110 +1  -60.1871936 +1     5     1     2
 

          Geometry optimization using EF

          DIAGONAL MATRIX USED AS START HESSIAN

 CYCLE:     1 TIME:   0.000 TIME LEFT:  2.00D  GRAD.:     1.120 HEAT:  76.17851
 CYCLE:     2 TIME:   0.004 TIME LEFT:  2.00D  GRAD.:     0.953 HEAT:  76.17500

     GRADIENT =  0.95326 IS LESS THAN CUTOFF =  1.00000



          VARIABLE        FUNCTION
 :         2.56000       76.175004
 PM7 step=0.03, point=500
 Title

  C     0.00000022 +1    0.0000004 +1    0.0000014 +1     0     0     0
  H     1.05878309 +1    0.0000000 +1   -0.0000000 +1     1     0     0
  H     1.05877224 +1  118.7046382 +1   -0.0000000 +1     1     2     0
  H     1.05888906 +1  118.6086939 +1  157.2016689 +1     1     2     3
  C     2.56000200 -1   97.3364650 +1 -101.9150168 +1     1     2     3
  H     1.05877043 +1   96.3806780 +1   59.8267731 +1     5     1     2
  H     1.05874222 +1   96.2409446 +1  179.8280089 +1     5     1     2
  H     1.05875006 +1   96.3036467 +1  -60.1859257 +1     5     1     2
 

          Geometry optimization using EF

          DIAGONAL MATRIX USED AS START HESSIAN

 CYCLE:     1 TIME:   0.000 TIME LEFT:  2.00D  GRAD.:     1.685 HEAT:  78.74695
 CYCLE:     2 TIME:   0.004 TIME LEFT:  2.00D  GRAD.:     1.381 HEAT:  78.73960
 CYCLE:     3 TIME:   0.000 TIME LEFT:  2.00D  GRAD.:     0.671 HEAT:  78.71798

     GRADIENT =  0.67099 IS LESS THAN CUTOFF =  1.00000



          VARIABLE        FUNCTION
 :         2.59000       78.717987
 PM7 step=0.03, point=500
 Title

  C     0.00000022 +1    0.0000005 +1    0.0000015 +1     0     0     0
  H     1.05841512 +1    0.0000000 +1   -0.0000000 +1     1     0     0
  H     1.05840496 +1  118.8896063 +1   -0.0000000 +1     1     2     0
  H     1.05856365 +1  118.7877531 +1  158.6779388 +1     1     2     3
  C     2.59000200 -1   96.9728129 +1 -101.2162526 +1     1     2     3
  H     1.05843125 +1   95.8969030 +1   59.8166358 +1     5     1     2
  H     1.05835157 +1   95.7395425 +1  179.8159728 +1     5     1     2
  H     1.05836954 +1   95.8042530 +1  -60.1941956 +1     5     1     2
 

          Geometry optimization using EF

     GRADIENT =  0.98005 IS LESS THAN CUTOFF =  1.00000



          VARIABLE        FUNCTION
 :         2.62000       81.193793
 PM7 step=0.03, point=500
 Title

  C     0.00000022 +1    0.0000005 +1    0.0000015 +1     0     0     0
  H     1.05841512 +1    0.0000000 +1   -0.0000000 +1     1     0     0
  H     1.05840496 +1  118.8896063 +1   -0.0000000 +1     1     2     0
  H     1.05856365 +1  118.7877531 +1  158.6779388 +1     1     2     3
  C     2.62000200 -1   96.9728129 +1 -101.2162526 +1     1     2     3
  H     1.05843125 +1   95.8969030 +1   59.8166358 +1     5     1     2
  H     1.05835157 +1   95.7395425 +1  179.8159728 +1     5     1     2
  H     1.05836954 +1   95.8042530 +1  -60.1941956 +1     5     1     2
 

          Geometry optimization using EF

          DIAGONAL MATRIX USED AS START HESSIAN

 CYCLE:     1 TIME:   0.000 TIME LEFT:  2.00D  GRAD.:     1.593 HEAT:  83.59241
 CYCLE:     2 TIME:   0.000 TIME LEFT:  2.00D  GRAD.:     1.300 HEAT:  83.58560
 CYCLE:     3 TIME:   0.004 TIME LEFT:  2.00D  GRAD.:     0.678 HEAT:  83.56531

     GRADIENT =  0.67814 IS LESS THAN CUTOFF =  1.00000



          VARIABLE        FUNCTION
 :         2.65000       83.565310
 PM7 step=0.03, point=500
 Title

  C     0.00000023 +1    0.0000005 +1    0.0000016 +1     0     0     0
  H     1.05804528 +1    0.0000000 +1   -0.0000000 +1     1     0     0
  H     1.05806739 +1  119.0379324 +1   -0.0000000 +1     1     2     0
  H     1.05816727 +1  118.9362313 +1  160.1067099 +1     1     2     3
  C     2.65000200 -1   96.6147137 +1 -100.5691910 +1     1     2     3
  H     1.05804797 +1   95.4739031 +1   59.8061075 +1     5     1     2
  H     1.05802406 +1   95.2959953 +1  179.8075165 +1     5     1     2
  H     1.05803185 +1   95.3631843 +1  -60.2098343 +1     5     1     2
 

          Geometry optimization using EF

     GRADIENT =  0.97407 IS LESS THAN CUTOFF =  1.00000



          VARIABLE        FUNCTION
 :         2.68000       85.870937
 PM7 step=0.03, point=500
 Title

  C     0.00000023 +1    0.0000005 +1    0.0000016 +1     0     0     0
  H     1.05804528 +1    0.0000000 +1   -0.0000000 +1     1     0     0
  H     1.05806739 +1  119.0379324 +1   -0.0000000 +1     1     2     0
  H     1.05816727 +1  118.9362313 +1  160.1067099 +1     1     2     3
  C     2.68000200 -1   96.6147137 +1 -100.5691910 +1     1     2     3
  H     1.05804797 +1   95.4739031 +1   59.8061075 +1     5     1     2
  H     1.05802406 +1   95.2959953 +1  179.8075165 +1     5     1     2
  H     1.05803185 +1   95.3631843 +1  -60.2098343 +1     5     1     2
 

          Geometry optimization using EF

          DIAGONAL MATRIX USED AS START HESSIAN

 CYCLE:     1 TIME:   0.004 TIME LEFT:  2.00D  GRAD.:     1.511 HEAT:  88.09999
 CYCLE:     2 TIME:   0.000 TIME LEFT:  2.00D  GRAD.:     1.257 HEAT:  88.09374
 CYCLE:     3 TIME:   0.000 TIME LEFT:  2.00D  GRAD.:     0.655 HEAT:  88.07323

     GRADIENT =  0.65514 IS LESS THAN CUTOFF =  1.00000



          VARIABLE        FUNCTION
 :         2.71000       88.073231
 PM7 step=0.03, point=500
 Title

  C     0.00000024 +1    0.0000005 +1    0.0000017 +1     0     0     0
  H     1.05780019 +1    0.0000000 +1   -0.0000000 +1     1     0     0
  H     1.05775643 +1  119.1930524 +1   -0.0000000 +1     1     2     0
  H     1.05791210 +1  119.0936867 +1  161.6446013 +1     1     2     3
  C     2.71000200 -1   96.2206405 +1  -99.8265473 +1     1     2     3
  H     1.05781677 +1   95.0299381 +1   59.7892167 +1     5     1     2
  H     1.05773043 +1   94.8348093 +1  179.7896375 +1     5     1     2
  H     1.05775352 +1   94.9082965 +1  -60.2206064 +1     5     1     2
 

          Geometry optimization using EF

     GRADIENT =  0.83178 IS LESS THAN CUTOFF =  1.00000



          VARIABLE        FUNCTION
 :         2.74000       90.211747
 PM7 step=0.03, point=500
 Title

  C     0.00000024 +1    0.0000005 +1    0.0000017 +1     0     0     0
  H     1.05780019 +1    0.0000000 +1   -0.0000000 +1     1     0     0
  H     1.05775643 +1  119.1930524 +1   -0.0000000 +1     1     2     0
  H     1.05791210 +1  119.0936867 +1  161.6446013 +1     1     2     3
  C     2.74000200 -1   96.2206405 +1  -99.8265473 +1     1     2     3
  H     1.05781677 +1   95.0299381 +1   59.7892167 +1     5     1     2
  H     1.05773043 +1   94.8348093 +1  179.7896375 +1     5     1     2
  H     1.05775352 +1   94.9082965 +1  -60.2206064 +1     5     1     2
 

          Geometry optimization using EF

          DIAGONAL MATRIX USED AS START HESSIAN

 CYCLE:     1 TIME:   0.004 TIME LEFT:  2.00D  GRAD.:     1.284 HEAT:  92.27595
 CYCLE:     2 TIME:   0.000 TIME LEFT:  2.00D  GRAD.:     1.077 HEAT:  92.27133
 CYCLE:     3 TIME:   0.000 TIME LEFT:  2.00D  GRAD.:     0.612 HEAT:  92.25467

     GRADIENT =  0.61171 IS LESS THAN CUTOFF =  1.00000



          VARIABLE        FUNCTION
 :         2.77000       92.254668
 PM7 step=0.03, point=500
 Title

  C     0.00000025 +1    0.0000005 +1    0.0000018 +1     0     0     0
  H     1.05747246 +1    0.0000000 +1   -0.0000000 +1     1     0     0
  H     1.05753620 +1  119.3182890 +1   -0.0000000 +1     1     2     0
  H     1.05757617 +1  119.2265311 +1  163.0824539 +1     1     2     3
  C     2.77000200 -1   95.8058823 +1  -99.0751939 +1     1     2     3
  H     1.05748615 +1   94.6476910 +1   59.7744810 +1     5     1     2
  H     1.05748973 +1   94.4436150 +1  179.7780921 +1     5     1     2
  H     1.05749251 +1   94.5204905 +1  -60.2437190 +1     5     1     2
 

          Geometry optimization using EF

     GRADIENT =  0.71656 IS LESS THAN CUTOFF =  1.00000



          VARIABLE        FUNCTION
 :         2.80000       94.234178
 PM7 step=0.03, point=500
 Title

  C     0.00000025 +1    0.0000005 +1    0.0000018 +1     0     0     0
  H     1.05747246 +1    0.0000000 +1   -0.0000000 +1     1     0     0
  H     1.05753620 +1  119.3182890 +1   -0.0000000 +1     1     2     0
  H     1.05757617 +1  119.2265311 +1  163.0824539 +1     1     2     3
  C     2.80000200 -1   95.8058823 +1  -99.0751939 +1     1     2     3
  H     1.05748615 +1   94.6476910 +1   59.7744810 +1     5     1     2
  H     1.05748973 +1   94.4436150 +1  179.7780921 +1     5     1     2
  H     1.05749251 +1   94.5204905 +1  -60.2437190 +1     5     1     2
 

          Geometry optimization using EF

          DIAGONAL MATRIX USED AS START HESSIAN

 CYCLE:     1 TIME:   0.000 TIME LEFT:  2.00D  GRAD.:     1.108 HEAT:  96.14257
 CYCLE:     2 TIME:   0.004 TIME LEFT:  2.00D  GRAD.:     0.929 HEAT:  96.13909

     GRADIENT =  0.92906 IS LESS THAN CUTOFF =  1.00000



          VARIABLE        FUNCTION
 :         2.83000       96.139089
 PM7 step=0.03, point=500
 Title

  C     0.00000025 +1    0.0000005 +1    0.0000018 +1     0     0     0
  H     1.05745581 +1    0.0000000 +1   -0.0000000 +1     1     0     0
  H     1.05748110 +1  119.3322156 +1   -0.0000000 +1     1     2     0
  H     1.05754842 +1  119.2419398 +1  163.2593043 +1     1     2     3
  C     2.83000200 -1   95.7610229 +1  -99.0001250 +1     1     2     3
  H     1.05747445 +1   94.5983492 +1   59.7702597 +1     5     1     2
  H     1.05746045 +1   94.3918112 +1  179.7741224 +1     5     1     2
  H     1.05746624 +1   94.4698069 +1  -60.2434292 +1     5     1     2
 

          Geometry optimization using EF

          DIAGONAL MATRIX USED AS START HESSIAN

 CYCLE:     1 TIME:   0.000 TIME LEFT:  2.00D  GRAD.:     1.394 HEAT:  97.97669
 CYCLE:     2 TIME:   0.004 TIME LEFT:  2.00D  GRAD.:     1.161 HEAT:  97.97140
 CYCLE:     3 TIME:   0.000 TIME LEFT:  2.00D  GRAD.:     0.580 HEAT:  97.95408

     GRADIENT =  0.58025 IS LESS THAN CUTOFF =  1.00000



          VARIABLE        FUNCTION
 :         2.86000       97.954078
 PM7 step=0.03, point=500
 Title

  C     0.00000026 +1    0.0000005 +1    0.0000019 +1     0     0     0
  H     1.05730663 +1    0.0000000 +1   -0.0000000 +1     1     0     0
  H     1.05724598 +1  119.4481414 +1   -0.0000000 +1     1     2     0
  H     1.05735549 +1  119.3710905 +1  164.7469542 +1     1     2     3
  C     2.86000200 -1   95.4097318 +1  -98.3757845 +1     1     2     3
  H     1.05730701 +1   94.1626046 +1   59.7546228 +1     5     1     2
  H     1.05721050 +1   93.9477926 +1  179.7521300 +1     5     1     2
  H     1.05723604 +1   94.0312249 +1  -60.2576857 +1     5     1     2
 

          Geometry optimization using EF

     GRADIENT =  0.67732 IS LESS THAN CUTOFF =  1.00000



          VARIABLE        FUNCTION
 :         2.89000       99.713280
 PM7 step=0.03, point=500
 Title

  C     0.00000026 +1    0.0000005 +1    0.0000019 +1     0     0     0
  H     1.05730663 +1    0.0000000 +1   -0.0000000 +1     1     0     0
  H     1.05724598 +1  119.4481414 +1   -0.0000000 +1     1     2     0
  H     1.05735549 +1  119.3710905 +1  164.7469542 +1     1     2     3
  C     2.89000200 -1   95.4097318 +1  -98.3757845 +1     1     2     3
  H     1.05730701 +1   94.1626046 +1   59.7546228 +1     5     1     2
  H     1.05721050 +1   93.9477926 +1  179.7521300 +1     5     1     2
  H     1.05723604 +1   94.0312249 +1  -60.2576857 +1     5     1     2
 

          Geometry optimization using EF

     GRADIENT =  0.99674 IS LESS THAN CUTOFF =  1.00000



          VARIABLE        FUNCTION
 :         2.92000      101.407085
 PM7 step=0.03, point=500
 Title

  C     0.00000026 +1    0.0000005 +1    0.0000019 +1     0     0     0
  H     1.05730663 +1    0.0000000 +1   -0.0000000 +1     1     0     0
  H     1.05724598 +1  119.4481414 +1   -0.0000000 +1     1     2     0
  H     1.05735549 +1  119.3710905 +1  164.7469542 +1     1     2     3
  C     2.92000200 -1   95.4097318 +1  -98.3757845 +1     1     2     3
  H     1.05730701 +1   94.1626046 +1   59.7546228 +1     5     1     2
  H     1.05721050 +1   93.9477926 +1  179.7521300 +1     5     1     2
  H     1.05723604 +1   94.0312249 +1  -60.2576857 +1     5     1     2
 

          Geometry optimization using EF

          DIAGONAL MATRIX USED AS START HESSIAN

 CYCLE:     1 TIME:   0.000 TIME LEFT:  2.00D  GRAD.:     1.356 HEAT:  103.0374
 CYCLE:     2 TIME:   0.000 TIME LEFT:  2.00D  GRAD.:     1.113 HEAT:  103.0324
 CYCLE:     3 TIME:   0.000 TIME LEFT:  2.00D  GRAD.:     0.573 HEAT:  103.0164

     GRADIENT =  0.57337 IS LESS THAN CUTOFF =  1.00000



          VARIABLE        FUNCTION
 :         2.95000      103.016431
 PM7 step=0.03, point=500
 Title

  C     0.00000027 +1    0.0000006 +1    0.0000019 +1     0     0     0
  H     1.05700803 +1    0.0000000 +1   -0.0000000 +1     1     0     0
  H     1.05705724 +1  119.5470290 +1   -0.0000000 +1     1     2     0
  H     1.05708980 +1  119.4749115 +1  166.0822431 +1     1     2     3
  C     2.95000200 -1   95.1031349 +1  -97.8049075 +1     1     2     3
  H     1.05704219 +1   93.7794981 +1   59.7400276 +1     5     1     2
  H     1.05704347 +1   93.5484911 +1  179.7438395 +1     5     1     2
  H     1.05704626 +1   93.6339631 +1  -60.2748853 +1     5     1     2
 

          Geometry optimization using EF

     GRADIENT =  0.69238 IS LESS THAN CUTOFF =  1.00000



          VARIABLE        FUNCTION
 :         2.98000      104.577149
 PM7 step=0.03, point=500
 Title

  C     0.00000027 +1    0.0000006 +1    0.0000019 +1     0     0     0
  H     1.05700803 +1    0.0000000 +1   -0.0000000 +1     1     0     0
  H     1.05705724 +1  119.5470290 +1   -0.0000000 +1     1     2     0
  H     1.05708980 +1  119.4749115 +1  166.0822431 +1     1     2     3
  C     2.98000200 -1   95.1031349 +1  -97.8049075 +1     1     2     3
  H     1.05704219 +1   93.7794981 +1   59.7400276 +1     5     1     2
  H     1.05704347 +1   93.5484911 +1  179.7438395 +1     5     1     2
  H     1.05704626 +1   93.6339631 +1  -60.2748853 +1     5     1     2
 

          Geometry optimization using EF

     GRADIENT =  0.97036 IS LESS THAN CUTOFF =  1.00000



          VARIABLE        FUNCTION
 :         3.01000      106.078654
 PM7 step=0.03, point=500
 Title

  C     0.00000027 +1    0.0000006 +1    0.0000019 +1     0     0     0
  H     1.05700803 +1    0.0000000 +1   -0.0000000 +1     1     0     0
  H     1.05705724 +1  119.5470290 +1   -0.0000000 +1     1     2     0
  H     1.05708980 +1  119.4749115 +1  166.0822431 +1     1     2     3
  C     3.01000200 -1   95.1031349 +1  -97.8049075 +1     1     2     3
  H     1.05704219 +1   93.7794981 +1   59.7400276 +1     5     1     2
  H     1.05704347 +1   93.5484911 +1  179.7438395 +1     5     1     2
  H     1.05704626 +1   93.6339631 +1  -60.2748853 +1     5     1     2
 

          Geometry optimization using EF

          DIAGONAL MATRIX USED AS START HESSIAN

 CYCLE:     1 TIME:   0.000 TIME LEFT:  2.00D  GRAD.:     1.274 HEAT:  107.5229
 CYCLE:     2 TIME:   0.000 TIME LEFT:  2.00D  GRAD.:     1.045 HEAT:  107.5184
 CYCLE:     3 TIME:   0.004 TIME LEFT:  2.00D  GRAD.:     0.544 HEAT:  107.5040

     GRADIENT =  0.54448 IS LESS THAN CUTOFF =  1.00000



          VARIABLE        FUNCTION
 :         3.04000      107.503967
 PM7 step=0.03, point=500
 Title

  C     0.00000028 +1    0.0000006 +1    0.0000020 +1     0     0     0
  H     1.05698567 +1    0.0000000 +1   -0.0000000 +1     1     0     0
  H     1.05690176 +1  119.6305347 +1   -0.0000000 +1     1     2     0
  H     1.05701109 +1  119.5638691 +1  167.3499412 +1     1     2     3
  C     3.04000200 -1   94.8224696 +1  -97.2592695 +1     1     2     3
  H     1.05698614 +1   93.4307062 +1   59.7240702 +1     5     1     2
  H     1.05687879 +1   93.1806348 +1  179.7216122 +1     5     1     2
  H     1.05690012 +1   93.2708673 +1  -60.2869223 +1     5     1     2
 

          Geometry optimization using EF

     GRADIENT =  0.66089 IS LESS THAN CUTOFF =  1.00000



          VARIABLE        FUNCTION
 :         3.07000      108.886663
 PM7 step=0.03, point=500
 Title

  C     0.00000028 +1    0.0000006 +1    0.0000020 +1     0     0     0
  H     1.05698567 +1    0.0000000 +1   -0.0000000 +1     1     0     0
  H     1.05690176 +1  119.6305347 +1   -0.0000000 +1     1     2     0
  H     1.05701109 +1  119.5638691 +1  167.3499412 +1     1     2     3
  C     3.07000200 -1   94.8224696 +1  -97.2592695 +1     1     2     3
  H     1.05698614 +1   93.4307062 +1   59.7240702 +1     5     1     2
  H     1.05687879 +1   93.1806348 +1  179.7216122 +1     5     1     2
  H     1.05690012 +1   93.2708673 +1  -60.2869223 +1     5     1     2
 

          Geometry optimization using EF

     GRADIENT =  0.89404 IS LESS THAN CUTOFF =  1.00000



          VARIABLE        FUNCTION
 :         3.10000      110.216358
 PM7 step=0.03, point=500
 Title

  C     0.00000028 +1    0.0000006 +1    0.0000020 +1     0     0     0
  H     1.05698567 +1    0.0000000 +1   -0.0000000 +1     1     0     0
  H     1.05690176 +1  119.6305347 +1   -0.0000000 +1     1     2     0
  H     1.05701109 +1  119.5638691 +1  167.3499412 +1     1     2     3
  C     3.10000200 -1   94.8224696 +1  -97.2592695 +1     1     2     3
  H     1.05698614 +1   93.4307062 +1   59.7240702 +1     5     1     2
  H     1.05687879 +1   93.1806348 +1  179.7216122 +1     5     1     2
  H     1.05690012 +1   93.2708673 +1  -60.2869223 +1     5     1     2
 

          Geometry optimization using EF

          DIAGONAL MATRIX USED AS START HESSIAN

 CYCLE:     1 TIME:   0.004 TIME LEFT:  2.00D  GRAD.:     1.150 HEAT:  111.4950
 CYCLE:     2 TIME:   0.000 TIME LEFT:  2.00D  GRAD.:     0.933 HEAT:  111.4913

     GRADIENT =  0.93274 IS LESS THAN CUTOFF =  1.00000



          VARIABLE        FUNCTION
 :         3.13000      111.491298
 PM7 step=0.03, point=500
 Title

  C     0.00000028 +1    0.0000006 +1    0.0000020 +1     0     0     0
  H     1.05690593 +1    0.0000000 +1   -0.0000000 +1     1     0     0
  H     1.05686100 +1  119.6412908 +1   -0.0000000 +1     1     2     0
  H     1.05694058 +1  119.5749610 +1  167.5376740 +1     1     2     3
  C     3.13000200 -1   94.7861646 +1  -97.1877107 +1     1     2     3
  H     1.05693027 +1   93.3766951 +1   59.7193757 +1     5     1     2
  H     1.05685910 +1   93.1246100 +1  179.7208729 +1     5     1     2
  H     1.05687375 +1   93.2155325 +1  -60.2907654 +1     5     1     2
 

          Geometry optimization using EF

          DIAGONAL MATRIX USED AS START HESSIAN

 CYCLE:     1 TIME:   0.004 TIME LEFT:  2.00D  GRAD.:     1.252 HEAT:  112.7201
 CYCLE:     2 TIME:   0.000 TIME LEFT:  2.00D  GRAD.:     1.016 HEAT:  112.7157
 CYCLE:     3 TIME:   0.000 TIME LEFT:  2.00D  GRAD.:     0.525 HEAT:  112.7024

     GRADIENT =  0.52483 IS LESS THAN CUTOFF =  1.00000



          VARIABLE        FUNCTION
 :         3.16000      112.702390
 PM7 step=0.03, point=500
 Title

  C     0.00000029 +1    0.0000006 +1    0.0000021 +1     0     0     0
  H     1.05676630 +1    0.0000000 +1   -0.0000000 +1     1     0     0
  H     1.05678335 +1  119.7122544 +1   -0.0000000 +1     1     2     0
  H     1.05681361 +1  119.6506551 +1  168.7300499 +1     1     2     3
  C     3.16000200 -1   94.5453641 +1  -96.7135134 +1     1     2     3
  H     1.05677579 +1   93.0508645 +1   59.7062821 +1     5     1     2
  H     1.05674601 +1   92.7797896 +1  179.7076854 +1     5     1     2
  H     1.05676036 +1   92.8734485 +1  -60.3065001 +1     5     1     2
 

          Geometry optimization using EF

     GRADIENT =  0.63646 IS LESS THAN CUTOFF =  1.00000



          VARIABLE        FUNCTION
 :         3.19000      113.879071
 PM7 step=0.03, point=500
 Title

  C     0.00000029 +1    0.0000006 +1    0.0000021 +1     0     0     0
  H     1.05676630 +1    0.0000000 +1   -0.0000000 +1     1     0     0
  H     1.05678335 +1  119.7122544 +1   -0.0000000 +1     1     2     0
  H     1.05681361 +1  119.6506551 +1  168.7300499 +1     1     2     3
  C     3.19000200 -1   94.5453641 +1  -96.7135134 +1     1     2     3
  H     1.05677579 +1   93.0508645 +1   59.7062821 +1     5     1     2
  H     1.05674601 +1   92.7797896 +1  179.7076854 +1     5     1     2
  H     1.05676036 +1   92.8734485 +1  -60.3065001 +1     5     1     2
 

          Geometry optimization using EF

     GRADIENT =  0.82712 IS LESS THAN CUTOFF =  1.00000



          VARIABLE        FUNCTION
 :         3.22000      115.010593
 PM7 step=0.03, point=500
 Title

  C     0.00000029 +1    0.0000006 +1    0.0000021 +1     0     0     0
  H     1.05676630 +1    0.0000000 +1   -0.0000000 +1     1     0     0
  H     1.05678335 +1  119.7122544 +1   -0.0000000 +1     1     2     0
  H     1.05681361 +1  119.6506551 +1  168.7300499 +1     1     2     3
  C     3.22000200 -1   94.5453641 +1  -96.7135134 +1     1     2     3
  H     1.05677579 +1   93.0508645 +1   59.7062821 +1     5     1     2
  H     1.05674601 +1   92.7797896 +1  179.7076854 +1     5     1     2
  H     1.05676036 +1   92.8734485 +1  -60.3065001 +1     5     1     2
 

          Geometry optimization using EF

          DIAGONAL MATRIX USED AS START HESSIAN

 CYCLE:     1 TIME:   0.004 TIME LEFT:  2.00D  GRAD.:     1.035 HEAT:  116.0988
 CYCLE:     2 TIME:   0.000 TIME LEFT:  2.00D  GRAD.:     0.840 HEAT:  116.0957

     GRADIENT =  0.83977 IS LESS THAN CUTOFF =  1.00000



          VARIABLE        FUNCTION
 :         3.25000      116.095695
 PM7 step=0.03, point=500
 Title

  C     0.00000029 +1    0.0000006 +1    0.0000021 +1     0     0     0
  H     1.05673801 +1    0.0000000 +1   -0.0000000 +1     1     0     0
  H     1.05673802 +1  119.7213440 +1   -0.0000000 +1     1     2     0
  H     1.05677646 +1  119.6601924 +1  168.9041902 +1     1     2     3
  C     3.25000200 -1   94.5124023 +1  -96.6449214 +1     1     2     3
  H     1.05676581 +1   93.0031813 +1   59.7030006 +1     5     1     2
  H     1.05673325 +1   92.7300877 +1  179.7057382 +1     5     1     2
  H     1.05674457 +1   92.8245464 +1  -60.3081609 +1     5     1     2
 

          Geometry optimization using EF

          DIAGONAL MATRIX USED AS START HESSIAN

 CYCLE:     1 TIME:   0.004 TIME LEFT:  2.00D  GRAD.:     1.112 HEAT:  117.1418
 CYCLE:     2 TIME:   0.000 TIME LEFT:  2.00D  GRAD.:     0.901 HEAT:  117.1383

     GRADIENT =  0.90093 IS LESS THAN CUTOFF =  1.00000



          VARIABLE        FUNCTION
 :         3.28000      117.138249
 PM7 step=0.03, point=500
 Title

  C     0.00000029 +1    0.0000006 +1    0.0000021 +1     0     0     0
  H     1.05671697 +1    0.0000000 +1   -0.0000000 +1     1     0     0
  H     1.05670828 +1  119.7308332 +1   -0.0000000 +1     1     2     0
  H     1.05674936 +1  119.6703004 +1  169.0906893 +1     1     2     3
  C     3.28000200 -1   94.4805192 +1  -96.5782930 +1     1     2     3
  H     1.05675072 +1   92.9502699 +1   59.7004622 +1     5     1     2
  H     1.05671623 +1   92.6752932 +1  179.7033014 +1     5     1     2
  H     1.05672743 +1   92.7704968 +1  -60.3102669 +1     5     1     2
 

          Geometry optimization using EF

          DIAGONAL MATRIX USED AS START HESSIAN

 CYCLE:     1 TIME:   0.000 TIME LEFT:  2.00D  GRAD.:     1.170 HEAT:  118.1439
 CYCLE:     2 TIME:   0.000 TIME LEFT:  2.00D  GRAD.:     0.946 HEAT:  118.1400

     GRADIENT =  0.94648 IS LESS THAN CUTOFF =  1.00000



          VARIABLE        FUNCTION
 :         3.31000      118.140007
 PM7 step=0.03, point=500
 Title

  C     0.00000029 +1    0.0000006 +1    0.0000021 +1     0     0     0
  H     1.05669831 +1    0.0000000 +1   -0.0000000 +1     1     0     0
  H     1.05668473 +1  119.7406821 +1   -0.0000000 +1     1     2     0
  H     1.05672599 +1  119.6808202 +1  169.2865955 +1     1     2     3
  C     3.31000200 -1   94.4495687 +1  -96.5131062 +1     1     2     3
  H     1.05673340 +1   92.8936062 +1   59.6980496 +1     5     1     2
  H     1.05669795 +1   92.6168472 +1  179.7008156 +1     5     1     2
  H     1.05670921 +1   92.7127514 +1  -60.3124454 +1     5     1     2
 

          Geometry optimization using EF

          DIAGONAL MATRIX USED AS START HESSIAN

 CYCLE:     1 TIME:   0.000 TIME LEFT:  2.00D  GRAD.:     1.210 HEAT:  119.1069
 CYCLE:     2 TIME:   0.000 TIME LEFT:  2.00D  GRAD.:     0.979 HEAT:  119.1028

     GRADIENT =  0.97879 IS LESS THAN CUTOFF =  1.00000



          VARIABLE        FUNCTION
 :         3.34000      119.102751
 PM7 step=0.03, point=500
 Title

  C     0.00000030 +1    0.0000006 +1    0.0000021 +1     0     0     0
  H     1.05668107 +1    0.0000000 +1   -0.0000000 +1     1     0     0
  H     1.05666445 +1  119.7507705 +1   -0.0000000 +1     1     2     0
  H     1.05670487 +1  119.6916259 +1  169.4895355 +1     1     2     3
  C     3.34000200 -1   94.4194421 +1  -96.4489873 +1     1     2     3
  H     1.05671589 +1   92.8344367 +1   59.6957496 +1     5     1     2
  H     1.05668005 +1   92.5559812 +1  179.6984858 +1     5     1     2
  H     1.05669123 +1   92.6525400 +1  -60.3144877 +1     5     1     2
 

          Geometry optimization using EF

          DIAGONAL MATRIX USED AS START HESSIAN

 CYCLE:     1 TIME:   0.000 TIME LEFT:  2.00D  GRAD.:     1.237 HEAT:  120.0326
 CYCLE:     2 TIME:   0.000 TIME LEFT:  2.00D  GRAD.:     1.000 HEAT:  120.0282

     GRADIENT =  0.99980 IS LESS THAN CUTOFF =  1.00000



          VARIABLE        FUNCTION
 :         3.37000      120.028219
 PM7 step=0.03, point=500
 Title

  C     0.00000030 +1    0.0000006 +1    0.0000021 +1     0     0     0
  H     1.05666341 +1    0.0000000 +1   -0.0000000 +1     1     0     0
  H     1.05664472 +1  119.7609867 +1   -0.0000000 +1     1     2     0
  H     1.05668390 +1  119.7025875 +1  169.6974085 +1     1     2     3
  C     3.37000200 -1   94.3900611 +1  -96.3857480 +1     1     2     3
  H     1.05669820 +1   92.7736403 +1   59.6934935 +1     5     1     2
  H     1.05666225 +1   92.4935679 +1  179.6961321 +1     5     1     2
  H     1.05667335 +1   92.5907347 +1  -60.3165465 +1     5     1     2
 

          Geometry optimization using EF

          DIAGONAL MATRIX USED AS START HESSIAN

 CYCLE:     1 TIME:   0.000 TIME LEFT:  2.00D  GRAD.:     1.251 HEAT:  120.9225
 CYCLE:     2 TIME:   0.000 TIME LEFT:  2.00D  GRAD.:     1.012 HEAT:  120.9181
 CYCLE:     3 TIME:   0.004 TIME LEFT:  2.00D  GRAD.:     0.454 HEAT:  120.9051

     GRADIENT =  0.45391 IS LESS THAN CUTOFF =  1.00000



          VARIABLE        FUNCTION
 :         3.40000      120.905135
 PM7 step=0.03, point=500
 Title

  C     0.00000030 +1    0.0000006 +1    0.0000021 +1     0     0     0
  H     1.05662866 +1    0.0000000 +1   -0.0000000 +1     1     0     0
  H     1.05660768 +1  119.8208294 +1    0.0000000 +1     1     2     0
  H     1.05665200 +1  119.7676746 +1  170.9022921 +1     1     2     3
  C     3.40000200 -1   94.1953370 +1  -95.9779214 +1     1     2     3
  H     1.05661301 +1   92.4488374 +1   59.6796779 +1     5     1     2
  H     1.05655299 +1   92.1551372 +1  179.6799835 +1     5     1     2
  H     1.05656606 +1   92.2510450 +1  -60.3300714 +1     5     1     2
 

          Geometry optimization using EF

     GRADIENT =  0.57453 IS LESS THAN CUTOFF =  1.00000



          VARIABLE        FUNCTION
 :         3.43000      121.762715
 PM7 step=0.03, point=500
 Title

  C     0.00000030 +1    0.0000006 +1    0.0000021 +1     0     0     0
  H     1.05662866 +1    0.0000000 +1   -0.0000000 +1     1     0     0
  H     1.05660768 +1  119.8208294 +1    0.0000000 +1     1     2     0
  H     1.05665200 +1  119.7676746 +1  170.9022921 +1     1     2     3
  C     3.43000200 -1   94.1953370 +1  -95.9779214 +1     1     2     3
  H     1.05661301 +1   92.4488374 +1   59.6796779 +1     5     1     2
  H     1.05655299 +1   92.1551372 +1  179.6799835 +1     5     1     2
  H     1.05656606 +1   92.2510450 +1  -60.3300714 +1     5     1     2
 

          Geometry optimization using EF

     GRADIENT =  0.70505 IS LESS THAN CUTOFF =  1.00000



          VARIABLE        FUNCTION
 :         3.46000      122.588585
 PM7 step=0.03, point=500
 Title

  C     0.00000030 +1    0.0000006 +1    0.0000021 +1     0     0     0
  H     1.05662866 +1    0.0000000 +1   -0.0000000 +1     1     0     0
  H     1.05660768 +1  119.8208294 +1    0.0000000 +1     1     2     0
  H     1.05665200 +1  119.7676746 +1  170.9022921 +1     1     2     3
  C     3.46000200 -1   94.1953370 +1  -95.9779214 +1     1     2     3
  H     1.05661301 +1   92.4488374 +1   59.6796779 +1     5     1     2
  H     1.05655299 +1   92.1551372 +1  179.6799835 +1     5     1     2
  H     1.05656606 +1   92.2510450 +1  -60.3300714 +1     5     1     2
 

          Geometry optimization using EF

     GRADIENT =  0.84907 IS LESS THAN CUTOFF =  1.00000



          VARIABLE        FUNCTION
 :         3.49000      123.384229
 PM7 step=0.03, point=500
 Title

  C     0.00000030 +1    0.0000006 +1    0.0000021 +1     0     0     0
  H     1.05662866 +1    0.0000000 +1   -0.0000000 +1     1     0     0
  H     1.05660768 +1  119.8208294 +1    0.0000000 +1     1     2     0
  H     1.05665200 +1  119.7676746 +1  170.9022921 +1     1     2     3
  C     3.49000200 -1   94.1953370 +1  -95.9779214 +1     1     2     3
  H     1.05661301 +1   92.4488374 +1   59.6796779 +1     5     1     2
  H     1.05655299 +1   92.1551372 +1  179.6799835 +1     5     1     2
  H     1.05656606 +1   92.2510450 +1  -60.3300714 +1     5     1     2
 

          Geometry optimization using EF

     GRADIENT =  0.99549 IS LESS THAN CUTOFF =  1.00000



          VARIABLE        FUNCTION
 :         3.52000      124.151022
 PM7 step=0.03, point=500
 Title

  C     0.00000030 +1    0.0000006 +1    0.0000021 +1     0     0     0
  H     1.05662866 +1    0.0000000 +1   -0.0000000 +1     1     0     0
  H     1.05660768 +1  119.8208294 +1    0.0000000 +1     1     2     0
  H     1.05665200 +1  119.7676746 +1  170.9022921 +1     1     2     3
  C     3.52000200 -1   94.1953370 +1  -95.9779214 +1     1     2     3
  H     1.05661301 +1   92.4488374 +1   59.6796779 +1     5     1     2
  H     1.05655299 +1   92.1551372 +1  179.6799835 +1     5     1     2
  H     1.05656606 +1   92.2510450 +1  -60.3300714 +1     5     1     2
 

          Geometry optimization using EF

          DIAGONAL MATRIX USED AS START HESSIAN

 CYCLE:     1 TIME:   0.000 TIME LEFT:  2.00D  GRAD.:     1.143 HEAT:  124.8903
 CYCLE:     2 TIME:   0.004 TIME LEFT:  2.00D  GRAD.:     0.918 HEAT:  124.8866

     GRADIENT =  0.91812 IS LESS THAN CUTOFF =  1.00000



          VARIABLE        FUNCTION
 :         3.55000      124.886556
 PM7 step=0.03, point=500
 Title

  C     0.00000031 +1    0.0000006 +1    0.0000021 +1     0     0     0
  H     1.05657492 +1    0.0000000 +1   -0.0000000 +1     1     0     0
  H     1.05655706 +1  119.8283505 +1    0.0000000 +1     1     2     0
  H     1.05659336 +1  119.7759212 +1  171.1001482 +1     1     2     3
  C     3.55000200 -1   94.1699786 +1  -95.9205748 +1     1     2     3
  H     1.05659673 +1   92.3932266 +1   59.6767559 +1     5     1     2
  H     1.05655092 +1   92.0984574 +1  179.6786235 +1     5     1     2
  H     1.05656119 +1   92.1947034 +1  -60.3321238 +1     5     1     2
 

          Geometry optimization using EF

          DIAGONAL MATRIX USED AS START HESSIAN

 CYCLE:     1 TIME:   0.000 TIME LEFT:  2.00D  GRAD.:     1.133 HEAT:  125.5992
 CYCLE:     2 TIME:   0.004 TIME LEFT:  2.00D  GRAD.:     0.911 HEAT:  125.5955

     GRADIENT =  0.91147 IS LESS THAN CUTOFF =  1.00000



          VARIABLE        FUNCTION
 :         3.58000      125.595480
 PM7 step=0.03, point=500
 Title

  C     0.00000031 +1    0.0000006 +1    0.0000020 +1     0     0     0
  H     1.05654817 +1    0.0000000 +1   -0.0000000 +1     1     0     0
  H     1.05653065 +1  119.8359912 +1    0.0000000 +1     1     2     0
  H     1.05656262 +1  119.7843445 +1  171.2976350 +1     1     2     3
  C     3.58000200 -1   94.1452651 +1  -95.8641430 +1     1     2     3
  H     1.05658152 +1   92.3380705 +1   59.6743959 +1     5     1     2
  H     1.05654240 +1   92.0422927 +1  179.6767918 +1     5     1     2
  H     1.05655249 +1   92.1388498 +1  -60.3343144 +1     5     1     2
 

          Geometry optimization using EF

          DIAGONAL MATRIX USED AS START HESSIAN

 CYCLE:     1 TIME:   0.000 TIME LEFT:  2.00D  GRAD.:     1.119 HEAT:  126.2827
 CYCLE:     2 TIME:   0.004 TIME LEFT:  2.00D  GRAD.:     0.902 HEAT:  126.2790

     GRADIENT =  0.90195 IS LESS THAN CUTOFF =  1.00000



          VARIABLE        FUNCTION
 :         3.61000      126.279046
 PM7 step=0.03, point=500
 Title

  C     0.00000031 +1    0.0000006 +1    0.0000020 +1     0     0     0
  H     1.05653128 +1    0.0000000 +1   -0.0000000 +1     1     0     0
  H     1.05651321 +1  119.8436413 +1    0.0000000 +1     1     2     0
  H     1.05654275 +1  119.7927806 +1  171.4938850 +1     1     2     3
  C     3.61000200 -1   94.1211482 +1  -95.8085154 +1     1     2     3
  H     1.05656683 +1   92.2836067 +1   59.6723946 +1     5     1     2
  H     1.05653168 +1   91.9869369 +1  179.6748088 +1     5     1     2
  H     1.05654146 +1   92.0837779 +1  -60.3365794 +1     5     1     2
 

          Geometry optimization using EF

          DIAGONAL MATRIX USED AS START HESSIAN

 CYCLE:     1 TIME:   0.004 TIME LEFT:  2.00D  GRAD.:     1.105 HEAT:  126.9421
 CYCLE:     2 TIME:   0.000 TIME LEFT:  2.00D  GRAD.:     0.890 HEAT:  126.9385

     GRADIENT =  0.89021 IS LESS THAN CUTOFF =  1.00000



          VARIABLE        FUNCTION
 :         3.64000      126.938494
 PM7 step=0.03, point=500
 Title

  C     0.00000031 +1    0.0000006 +1    0.0000020 +1     0     0     0
  H     1.05651723 +1    0.0000000 +1   -0.0000000 +1     1     0     0
  H     1.05649848 +1  119.8512100 +1    0.0000000 +1     1     2     0
  H     1.05652645 +1  119.8011355 +1  171.6886750 +1     1     2     3
  C     3.64000200 -1   94.0976201 +1  -95.7537934 +1     1     2     3
  H     1.05655310 +1   92.2299444 +1   59.6703408 +1     5     1     2
  H     1.05652032 +1   91.9324649 +1  179.6727039 +1     5     1     2
  H     1.05652971 +1   92.0295603 +1  -60.3386381 +1     5     1     2
 

          Geometry optimization using EF

          DIAGONAL MATRIX USED AS START HESSIAN

 CYCLE:     1 TIME:   0.004 TIME LEFT:  2.00D  GRAD.:     1.089 HEAT:  127.5785
 CYCLE:     2 TIME:   0.000 TIME LEFT:  2.00D  GRAD.:     0.877 HEAT:  127.5750

     GRADIENT =  0.87658 IS LESS THAN CUTOFF =  1.00000



          VARIABLE        FUNCTION
 :         3.67000      127.575016
 PM7 step=0.03, point=500
 Title

  C     0.00000031 +1    0.0000006 +1    0.0000020 +1     0     0     0
  H     1.05650429 +1    0.0000000 +1   -0.0000000 +1     1     0     0
  H     1.05648500 +1  119.8586390 +1    0.0000000 +1     1     2     0
  H     1.05651182 +1  119.8093482 +1  171.8817213 +1     1     2     3
  C     3.67000200 -1   94.0746744 +1  -95.6999970 +1     1     2     3
  H     1.05654067 +1   92.1771961 +1   59.6682791 +1     5     1     2
  H     1.05650922 +1   91.8789872 +1  179.6705470 +1     5     1     2
  H     1.05651828 +1   91.9763099 +1  -60.3406091 +1     5     1     2
 

          Geometry optimization using EF

          DIAGONAL MATRIX USED AS START HESSIAN

 CYCLE:     1 TIME:   0.004 TIME LEFT:  2.00D  GRAD.:     1.071 HEAT:  128.1931
 CYCLE:     2 TIME:   0.000 TIME LEFT:  2.00D  GRAD.:     0.862 HEAT:  128.1898

     GRADIENT =  0.86155 IS LESS THAN CUTOFF =  1.00000



          VARIABLE        FUNCTION
 :         3.70000      128.189750
 PM7 step=0.03, point=500
 Title

  C     0.00000031 +1    0.0000006 +1    0.0000019 +1     0     0     0
  H     1.05649140 +1    0.0000000 +1   -0.0000000 +1     1     0     0
  H     1.05647222 +1  119.8658793 +1    0.0000000 +1     1     2     0
  H     1.05649890 +1  119.8174086 +1  172.0725511 +1     1     2     3
  C     3.70000200 -1   94.0523069 +1  -95.6471501 +1     1     2     3
  H     1.05652913 +1   92.1254531 +1   59.6662316 +1     5     1     2
  H     1.05649843 +1   91.8265897 +1  179.6683781 +1     5     1     2
  H     1.05650719 +1   91.9241156 +1  -60.3425227 +1     5     1     2
 

          Geometry optimization using EF

          DIAGONAL MATRIX USED AS START HESSIAN

 CYCLE:     1 TIME:   0.004 TIME LEFT:  2.00D  GRAD.:     1.051 HEAT:  128.7870
 CYCLE:     2 TIME:   0.000 TIME LEFT:  2.00D  GRAD.:     0.846 HEAT:  128.7838

     GRADIENT =  0.84551 IS LESS THAN CUTOFF =  1.00000



          VARIABLE        FUNCTION
 :         3.73000      128.783784
 PM7 step=0.03, point=500
 Title

  C     0.00000031 +1    0.0000006 +1    0.0000019 +1     0     0     0
  H     1.05647913 +1    0.0000000 +1   -0.0000000 +1     1     0     0
  H     1.05646013 +1  119.8729076 +1    0.0000000 +1     1     2     0
  H     1.05648637 +1  119.8252672 +1  172.2608051 +1     1     2     3
  C     3.73000200 -1   94.0305147 +1  -95.5952872 +1     1     2     3
  H     1.05651830 +1   92.0748009 +1   59.6641653 +1     5     1     2
  H     1.05648793 +1   91.7753522 +1  179.6662313 +1     5     1     2
  H     1.05649654 +1   91.8730591 +1  -60.3443853 +1     5     1     2
 

          Geometry optimization using EF

          DIAGONAL MATRIX USED AS START HESSIAN

 CYCLE:     1 TIME:   0.000 TIME LEFT:  2.00D  GRAD.:     1.029 HEAT:  129.3613
 CYCLE:     2 TIME:   0.004 TIME LEFT:  2.00D  GRAD.:     0.829 HEAT:  129.3582

     GRADIENT =  0.82887 IS LESS THAN CUTOFF =  1.00000



          VARIABLE        FUNCTION
 :         3.76000      129.358160
 PM7 step=0.03, point=500
 Title

  C     0.00000031 +1    0.0000006 +1    0.0000019 +1     0     0     0
  H     1.05646751 +1    0.0000000 +1   -0.0000000 +1     1     0     0
  H     1.05644861 +1  119.8796284 +1    0.0000000 +1     1     2     0
  H     1.05647418 +1  119.8328604 +1  172.4457378 +1     1     2     3
  C     3.76000200 -1   94.0092362 +1  -95.5442649 +1     1     2     3
  H     1.05650798 +1   92.0251992 +1   59.6620549 +1     5     1     2
  H     1.05647776 +1   91.7253485 +1  179.6640998 +1     5     1     2
[...]
 SHIFT=10, PULAY ON, CAMP-KING ON
 AND ITERATION COUNTER RESET



     GRADIENT =  0.42030 IS LESS THAN CUTOFF =  1.00000



          VARIABLE        FUNCTION
 :        16.45000      167.006109
 PM7 step=0.03, point=500
 Title

  C     0.00000033 +1    0.0000007 +1    0.0000015 +1     0     0     0
  H     1.05628492 +1    0.0000000 +1   -0.0000000 +1     1     0     0
  H     1.05627415 +1  120.0178527 +1    0.0000000 +1     1     2     0
  H     1.05628865 +1  119.9852153 +1  179.0246656 +1     1     2     3
  C    16.45000200 -1   94.8936398 +1  -96.1829922 +1     1     2     3
  H     1.05630125 +1   91.3062011 +1   59.5667463 +1     5     1     2
  H     1.05621582 +1   89.0309232 +1  179.5566668 +1     5     1     2
  H     1.05617668 +1   89.4364507 +1  -60.4379475 +1     5     1     2
 

          Geometry optimization using EF


 ALL CONVERGERS ARE NOW FORCED ON
 SHIFT=10, PULAY ON, CAMP-KING ON
 AND ITERATION COUNTER RESET



     GRADIENT =  0.42032 IS LESS THAN CUTOFF =  1.00000



          VARIABLE        FUNCTION
 :        16.48000      167.024483
 PM7 step=0.03, point=500
 Title

  C     0.00000033 +1    0.0000007 +1    0.0000015 +1     0     0     0
  H     1.05628492 +1    0.0000000 +1   -0.0000000 +1     1     0     0
  H     1.05627415 +1  120.0178527 +1    0.0000000 +1     1     2     0
  H     1.05628865 +1  119.9852153 +1  179.0246656 +1     1     2     3
  C    16.48000200 -1   94.8936398 +1  -96.1829922 +1     1     2     3
  H     1.05630125 +1   91.3062011 +1   59.5667463 +1     5     1     2
  H     1.05621582 +1   89.0309232 +1  179.5566668 +1     5     1     2
  H     1.05617668 +1   89.4364507 +1  -60.4379475 +1     5     1     2
 

          Geometry optimization using EF


 ALL CONVERGERS ARE NOW FORCED ON
 SHIFT=10, PULAY ON, CAMP-KING ON
 AND ITERATION COUNTER RESET



     GRADIENT =  0.42033 IS LESS THAN CUTOFF =  1.00000



          VARIABLE        FUNCTION
 :        16.51000      167.042791
 PM7 step=0.03, point=500
 Title

  C     0.00000033 +1    0.0000007 +1    0.0000015 +1     0     0     0
  H     1.05628492 +1    0.0000000 +1   -0.0000000 +1     1     0     0
  H     1.05627415 +1  120.0178527 +1    0.0000000 +1     1     2     0
  H     1.05628865 +1  119.9852153 +1  179.0246656 +1     1     2     3
  C    16.51000200 -1   94.8936398 +1  -96.1829922 +1     1     2     3
  H     1.05630125 +1   91.3062011 +1   59.5667463 +1     5     1     2
  H     1.05621582 +1   89.0309232 +1  179.5566668 +1     5     1     2
  H     1.05617668 +1   89.4364507 +1  -60.4379475 +1     5     1     2
 

                POINTS ON REACTION PATH 
                AND CORRESPONDING HEATS


       1.54000200       1.57000200       1.60000200       1.63000200       1.66000200       1.69000200       1.72000200       1.75000200
     -18.11408982     -17.54164455     -16.50777106     -15.09135633     -13.36098785     -11.37207745      -9.16918808      -6.78726635
       1.78000200       1.81000200       1.84000200       1.87000200       1.90000200       1.93000200       1.96000200       1.99000200
      -4.25389098      -1.59027305       1.18706012       4.06521044       7.02632933      10.07577219      13.19706375      16.38431169
       2.02000200       2.05000200       2.08000200       2.11000200       2.14000200       2.17000200       2.20000200       2.23000200
      19.62525033      22.91177667      26.23358448      29.58175234      32.94448186      36.31124492      39.67067319      43.01202470
       2.26000200       2.29000200       2.32000200       2.35000200       2.38000200       2.41000200       2.44000200       2.47000200
      46.32426820      49.59845756      52.82509747      55.99615194      59.10433468      62.15401475      65.11463961      67.99725763
       2.50000200       2.53000200       2.56000200       2.59000200       2.62000200       2.65000200       2.68000200       2.71000200
      70.81089876      73.52885285      76.17500432      78.71798657      81.19379311      83.56531001      85.87093743      88.07323107
       2.74000200       2.77000200       2.80000200       2.83000200       2.86000200       2.89000200       2.92000200       2.95000200
      90.21174730      92.25466786      94.23417804      96.13908869      97.95407787      99.71328050     101.40708537     103.01643093
       2.98000200       3.01000200       3.04000200       3.07000200       3.10000200       3.13000200       3.16000200       3.19000200
     104.57714927     106.07865374     107.50396687     108.88666320     110.21635793     111.49129765     112.70239043     113.87907127
       3.22000200       3.25000200       3.28000200       3.31000200       3.34000200       3.37000200       3.40000200       3.43000200
     115.01059315     116.09569538     117.13824895     118.14000750     119.10275147     120.02821898     120.90513496     121.76271468
       3.46000200       3.49000200       3.52000200       3.55000200       3.58000200       3.61000200       3.64000200       3.67000200
     122.58858544     123.38422902     124.15102233     124.88655582     125.59547963     126.27904571     126.93849445     127.57501577
       3.70000200       3.73000200       3.76000200       3.79000200       3.82000200       3.85000200       3.88000200       3.91000200
     128.18974973     128.78378446     129.35815992     129.91385601     130.45470226     130.97535947     131.48010023     131.96968296
       3.94000200       3.97000200       4.00000200       4.03000200       4.06000200       4.09000200       4.12000200       4.15000200
     132.44770396     132.90867232     133.35669836     133.79520566     134.21856238     134.63078268     135.03506205     135.42590163
       4.18000200       4.21000200       4.24000200       4.27000200       4.30000200       4.33000200       4.36000200       4.39000200
     135.80992667     136.18129741     136.54677556     136.90033641     137.24877229     137.58599684     137.91871839     138.24088954
       4.42000200       4.45000200       4.48000200       4.51000200       4.54000200       4.57000200       4.60000200       4.63000200
     138.55909081     138.86735745     139.17209379     139.47050083     139.75949642     140.04587298     140.32336918     140.59848999
       4.66000200       4.69000200       4.72000200       4.75000200       4.78000200       4.81000200       4.84000200       4.87000200
     140.86828874     141.12968495     141.38938968     141.64117414     141.89139021     142.13701603     142.37531824     142.61243027
       4.90000200       4.93000200       4.96000200       4.99000200       5.02000200       5.05000200       5.08000200       5.11000200
     142.84548473     143.07151568     143.29679071     143.51837009     143.73327752     143.94776940     144.15889622     144.36371029
       5.14000200       5.17000200       5.20000200       5.23000200       5.26000200       5.29000200       5.32000200       5.35000200
     144.56837548     144.76995844     144.96858419     145.16105606     145.35394779     145.54401958     145.72840491     145.91321752
       5.38000200       5.41000200       5.44000200       5.47000200       5.50000200       5.53000200       5.56000200       5.59000200
     146.09550786     146.27536464     146.44967615     146.62477343     146.79758609     146.96820352     147.13349841     147.29980970
       5.62000200       5.65000200       5.68000200       5.71000200       5.74000200       5.77000200       5.80000200       5.83000200
     147.46405100     147.62625583     147.78653888     147.94173835     148.09817257     148.25278663     148.40561969     148.55671146
       5.86000200       5.89000200       5.92000200       5.95000200       5.98000200       6.01000200       6.04000200       6.07000200
     148.70291063     148.85053863     148.99654122     149.14093885     149.28377603     149.42196852     149.56168047     149.69991292
       6.10000200       6.13000200       6.16000200       6.19000200       6.22000200       6.25000200       6.28000200       6.31000200
     149.83669306     149.97205162     150.10600671     150.23858812     150.36677923     150.49658407     150.62517358     150.75241769
       6.34000200       6.37000200       6.40000200       6.43000200       6.46000200       6.49000200       6.52000200       6.55000200
     150.87844573     151.00327879     151.12682417     151.24917144     151.37036885     151.49041089     151.60623856     151.72399145
       6.58000200       6.61000200       6.64000200       6.67000200       6.70000200       6.73000200       6.76000200       6.79000200
     151.84069069     151.95620717     152.07071037     152.18416102     152.29660709     152.40798486     152.51839070     152.62780364
       6.82000200       6.85000200       6.88000200       6.91000200       6.94000200       6.97000200       7.00000200       7.03000200
     152.73627642     152.84373935     152.95034815     153.05598003     153.16296078     153.26655583     153.36914762     153.46887697
       7.06000200       7.09000200       7.12000200       7.15000200       7.18000200       7.21000200       7.24000200       7.27000200
     153.56979284     153.67168824     153.77061106     153.86887835     153.96632248     154.06296933     154.15875920     154.25378268
       7.30000200       7.33000200       7.36000200       7.39000200       7.42000200       7.45000200       7.48000200       7.51000200
     154.34820896     154.44165129     154.53337387     154.62537252     154.71660291     154.80718806     154.89687218     154.98601662
       7.54000200       7.57000200       7.60000200       7.63000200       7.66000200       7.69000200       7.72000200       7.75000200
     155.07419470     155.16243426     155.24911753     155.33534921     155.42092975     155.50531821     155.58951208     155.67308412
       7.78000200       7.81000200       7.84000200       7.87000200       7.90000200       7.93000200       7.96000200       7.99000200
     155.75594229     155.83841200     155.92009327     156.00109653     156.08129472     156.16105247     156.24019698     156.31854628
       8.02000200       8.05000200       8.08000200       8.11000200       8.14000200       8.17000200       8.20000200       8.23000200
     156.39664093     156.47388225     156.55096106     156.62700829     156.70264420     156.77778168     156.85230944     156.92610905
       8.26000200       8.29000200       8.32000200       8.35000200       8.38000200       8.41000200       8.44000200       8.47000200
     156.99972922     157.07246548     157.14490332     157.21675728     157.28810457     157.35887653     157.42949334     157.49905617
       8.50000200       8.53000200       8.56000200       8.59000200       8.62000200       8.65000200       8.68000200       8.71000200
     157.56834627     157.63721207     157.70556026     157.77340355     157.84080398     157.90772621     157.97428517     158.04020517
       8.74000200       8.77000200       8.80000200       8.83000200       8.86000200       8.89000200       8.92000200       8.95000200
     158.10589643     158.17100311     158.23551590     158.29968906     158.36346936     158.42680988     158.48988958     158.55220523
       8.98000200       9.01000200       9.04000200       9.07000200       9.10000200       9.13000200       9.16000200       9.19000200
     158.61427556     158.67617729     158.73716842     158.79799703     158.85843064     158.91846561     158.97810590     159.03735540
       9.22000200       9.25000200       9.28000200       9.31000200       9.34000200       9.37000200       9.40000200       9.43000200
     159.09621798     159.15469742     159.21279746     159.27052182     159.32787413     159.38485800     159.44147699     159.49773460
       9.46000200       9.49000200       9.52000200       9.55000200       9.58000200       9.61000200       9.64000200       9.67000200
     159.55363429     159.60917949     159.66437358     159.71921988     159.77372168     159.82788223     159.88170496     159.93529027
       9.70000200       9.73000200       9.76000200       9.79000200       9.82000200       9.85000200       9.88000200       9.91000200
     159.98834878     160.04117605     160.09367786     160.14599605     160.19771621     160.24925937     160.30048834     160.35140615
       9.94000200       9.97000200      10.00000200      10.03000200      10.06000200      10.09000200      10.12000200      10.15000200
     160.40201544     160.45232010     160.50246085     160.55226647     160.60156977     160.65073760     160.69953744     160.74789006
      10.18000200      10.21000200      10.24000200      10.27000200      10.30000200      10.33000200      10.36000200      10.39000200
     160.79613332     160.84420388     160.89176954     160.93916801     160.98628965     171.26256268     161.07444218     161.12074896
      10.42000200      10.45000200      10.48000200      10.51000200      10.54000200      10.57000200      10.60000200      10.63000200
     161.16371907     161.20949365     161.25500606     161.30025837     161.34525277     161.38999113     161.43447603     161.47735894
      10.66000200      10.69000200      10.72000200      10.75000200      10.78000200      10.81000200      10.84000200      10.87000200
     161.52134027     161.56507673     161.60856825     161.65181664     161.69482394     161.73759216     161.78137453     161.82366977
      10.90000200      10.93000200      10.96000200      10.99000200      11.02000200      11.05000200      11.08000200      11.11000200
     161.86590619     161.90756427     161.94916658     161.99054137     162.03183290     162.07261615     162.11346851     162.15380318
      11.14000200      11.17000200      11.20000200      11.23000200      11.26000200      11.29000200      11.32000200      11.35000200
     162.19406832     162.23411687     162.27395057     162.31365559     162.35326252     162.39218000     162.43123429     162.47022395
      11.38000200      11.41000200      11.44000200      11.47000200      11.50000200      11.53000200      11.56000200      11.59000200
     162.50861187     162.54695784     162.58509016     162.62326087     162.66092527     162.69852053     162.73591823     162.77316473
      11.62000200      11.65000200      11.68000200      11.71000200      11.74000200      11.77000200      11.80000200      11.83000200
     162.81016113     162.84692044     162.88370693     162.91986029     162.95614660     162.99230469     163.02814462     163.06383790
      11.86000200      11.89000200      11.92000200      11.95000200      11.98000200      12.01000200      12.04000200      12.07000200
     163.09940486     163.13470124     163.16974318     163.20499611     163.23966063     163.27434313     163.30876132     163.34297928
      12.10000200      12.13000200      12.16000200      12.19000200      12.22000200      12.25000200      12.28000200      12.31000200
     163.37717227     163.41111559     163.44487859     163.47852480     163.51201138     163.54520178     163.57834598     163.61130201
      12.34000200      12.37000200      12.40000200      12.43000200      12.46000200      12.49000200      12.52000200      12.55000200
     163.64420764     163.67667076     163.70923218     163.74152782     163.77365239     163.80589857     163.83753950     163.86940368
      12.58000200      12.61000200      12.64000200      12.67000200      12.70000200      12.73000200      12.76000200      12.79000200
     163.90082863     163.93216068     163.96361079     163.99459103     164.02564027     164.05640437     164.08712229     164.11758293
      12.82000200      12.85000200      12.88000200      12.91000200      12.94000200      12.97000200      13.00000200      13.03000200
     164.14844611     164.17815516     164.20835085     164.23830585     164.26816837     164.29776073     164.32745646     164.35678160
      13.06000200      13.09000200      13.12000200      13.15000200      13.18000200      13.21000200      13.24000200      13.27000200
     164.38597279     164.41511505     164.44422169     164.47313752     164.50182272     164.53037293     164.55887171     164.58726160
      13.30000200      13.33000200      13.36000200      13.39000200      13.42000200      13.45000200      13.48000200      13.51000200
     164.61555096     164.64353471     164.67159489     164.69937289     164.72707647     164.75475513     164.78214114     164.80959032
      13.54000200      13.57000200      13.60000200      13.63000200      13.66000200      13.69000200      13.72000200      13.75000200
     164.83675329     164.86393127     164.89105105     164.91786754     164.94454413     164.97121189     164.99771335     165.02434932
      13.78000200      13.81000200      13.84000200      13.87000200      13.90000200      13.93000200      13.96000200      13.99000200
     165.05075683     165.07655302     165.10266933     165.12847543     165.15433829     165.18004401     165.20566141     165.23123422
      14.02000200      14.05000200      14.08000200      14.11000200      14.14000200      14.17000200      14.20000200      14.23000200
     165.25660681     165.28188002     165.30707712     165.33225796     165.35736016     165.38205076     165.40685378     165.43150497
      14.26000200      14.29000200      14.32000200      14.35000200      14.38000200      14.41000200      14.44000200      14.47000200
     165.45623099     165.48050016     165.50473870     165.52903270     165.55308013     165.57712057     165.60106108     165.62490228
      14.50000200      14.53000200      14.56000200      14.59000200      14.62000200      14.65000200      14.68000200      14.71000200
     165.64864480     165.67228925     165.69595789     165.71928635     165.74264020     165.76589835     165.78919792     165.81227753
      14.74000200      14.77000200      14.80000200      14.83000200      14.86000200      14.89000200      14.92000200      14.95000200
     165.83522740     165.85801763     165.88086676     165.90347068     165.92607531     165.94890343     165.97101172     165.99334464
      14.98000200      15.01000200      15.04000200      15.07000200      15.10000200      15.13000200      15.16000200      15.19000200
     166.01558807     166.03774257     166.05980862     166.08199545     166.10374133     166.12548173     166.14719944     166.16883134
      15.22000200      15.25000200      15.28000200      15.31000200      15.34000200      15.37000200      15.40000200      15.43000200
     166.19037791     166.21183971     166.23321722     166.25451093     166.27572133     166.29684892     166.31789416     166.33885756
      15.46000200      15.49000200      15.52000200      15.55000200      15.58000200      15.61000200      15.64000200      15.67000200
     166.35973958     166.38054069     166.40126137     166.42190207     166.44246328     166.46294545     166.48334901     166.50367442
      15.70000200      15.73000200      15.76000200      15.79000200      15.82000200      15.85000200      15.88000200      15.91000200
     166.52392213     166.54409262     166.56418629     166.58420358     166.60414494     166.62401081     166.64380160     166.66351774
      15.94000200      15.97000200      16.00000200      16.03000200      16.06000200      16.09000200      16.12000200      16.15000200
     166.68315963     166.70272773     166.72222243     166.74164416     166.76099332     166.78027028     166.79947552     166.81860935
      16.18000200      16.21000200      16.24000200      16.27000200      16.30000200      16.33000200      16.36000200      16.39000200
     166.83767226     166.85666455     166.87558669     166.89443908     166.91322198     166.93193628     166.95058156     166.96915823
      16.42000200      16.45000200      16.48000200      16.51000200
     166.98766734     167.00610894     167.02448339     167.04279105

 **********************
 *                    *
 * JOB ENDED NORMALLY *
 *                    *
 **********************



 TOTAL JOB TIME:             8.35 SECONDS

 == MOPAC DONE ==
