 *******************************************************************************
 ** Site#: 36969        For non-commercial use only    Version 21.051W 64BITS **
 *******************************************************************************
 ** Cite this program as: MOPAC2016, Version: 21.051W, James J. P. Stewart,   **
 ** Stewart Computational Chemistry, web: HTTP://OpenMOPAC.net. Days left: 276**
 *******************************************************************************
 **                                                                           **
 **                                MOPAC2016                                  **
 **                                                                           **
 *******************************************************************************

                              PM7 CALCULATION RESULTS

 *******************************************************************************
 *  CALCULATION DONE:                                Thu May 20 15:24:12 2021  *
 *  PM7        - The PM7 Hamiltonian to be used
 *  T=         - A TIME OF 172800.0 SECONDS REQUESTED
 *  DUMP=N     - RESTART FILE WRITTEN EVERY 7200.0 SECONDS REQUESTED
 *******************************************************************************
PM7
 imine.xyz

   ATOM   CHEMICAL          X               Y               Z
  NUMBER   SYMBOL      (ANGSTROMS)     (ANGSTROMS)     (ANGSTROMS)
 
     1       C          3.08830000  *  -3.96758000  *  -1.40792000  *
     2       C          2.58155000  *  -2.76320000  *  -2.25639000  *
     3       C         -0.63482000  *  -6.87929000  *  -1.93990000  *
     4       C         -0.35812000  *  -5.71843000  *  -1.33915000  *
     5       C          0.54822000  *  -0.95128000  *   2.74945000  *
     6       C         -1.36943000  *  -2.31824000  *   2.10211000  *
     7       C         -1.68191000  *  -2.43969000  *   3.48215000  *
     8       C          0.18903000  *  -1.11521000  *   4.08504000  *
     9       C         -2.19996000  *  -3.01783000  *   1.18318000  *
    10       C         -3.31103000  *  -3.77525000  *   1.61592000  *
    11       C         -3.59069000  *  -3.84709000  *   2.97860000  *
    12       O         -4.13085000  *  -4.46047000  *   0.77057000  *
    13       N         -0.90701000  *  -1.83612000  *   4.41676000  *
    14       C         -4.19164000  *  -4.37145000  *  -0.60652000  *
    15       C          0.16543000  *  -1.26139000  *   0.24796000  *
    16       C          1.27544000  *  -2.21217000  *  -0.28759000  *
    17       C          0.25396000  *  -3.39478000  *  -2.18932000  *
    18       C          1.32051000  *  -3.63970000  *   0.35102000  *
    19       C          1.86449000  *  -4.62876000  *  -0.71578000  *
    20       C          0.77249000  *  -4.81808000  *  -1.79890000  *
    21       C         -0.22681000  *  -1.52353000  *   1.72258000  *
    22       N          1.23936000  *  -2.33939000  *  -1.78345000  *
    23       C         -2.78507000  *  -3.19014000  *   3.90392000  *
    24       N          0.55921000  *   0.15037000  *  -0.02595000  *
    25       C         -0.50848000  *   1.06000000  *   0.38804000  *
    26       C         -1.39636000  *   1.45814000  *  -0.78192000  *
    27       C         -2.70037000  *   1.97115000  *  -0.18301000  *
    28       C         -2.45358000  *   3.20520000  *   0.71370000  *
    29       C         -1.30764000  *   2.96577000  *   1.74064000  *
    30       C         -0.05631000  *   2.34631000  *   1.10070000  *
    31       C         -3.74702000  *   3.53853000  *   1.43802000  *
    32       C         -4.43620000  *   4.73570000  *   1.18410000  *
    33       C         -5.63680000  *   5.01195000  *   1.85178000  *
    34       C         -6.15413000  *   4.10265000  *   2.77988000  *
    35       C         -5.47836000  *   2.91175000  *   3.04004000  *
    36       C         -4.28894000  *   2.62749000  *   2.37281000  *
    37       H          3.65170000  *  -4.66105000  *  -2.06832000  *
    38       H          3.77931000  *  -3.62505000  *  -0.60697000  *
    39       H          2.49031000  *  -3.06917000  *  -3.32521000  *
    40       H          3.32225000  *  -1.93462000  *  -2.23364000  *
    41       H         -1.44776000  *  -7.49786000  *  -1.57191000  *
    42       H         -0.05840000  *  -7.22644000  *  -2.79105000  *
    43       H         -0.96569000  *  -5.42913000  *  -0.48786000  *
    44       H          1.42394000  *  -0.35892000  *   2.53249000  *
    45       H          0.78120000  *  -0.65857000  *   4.86626000  *
    46       H         -1.99742000  *  -3.01109000  *   0.13427000  *
    47       H         -4.43974000  *  -4.42517000  *   3.32315000  *
    48       H         -4.91931000  *  -5.11704000  *  -0.98582000  *
    49       H         -4.57705000  *  -3.38179000  *  -0.90923000  *
    50       H         -3.20577000  *  -4.57287000  *  -1.07180000  *
    51       H         -0.73000000  *  -1.45778000  *  -0.35282000  *
    52       H          2.24487000  *  -1.74286000  *   0.00512000  *
    53       H          0.01757000  *  -3.36568000  *  -3.27565000  *
    54       H         -0.70609000  *  -3.19747000  *  -1.67935000  *
    55       H          0.32485000  *  -3.99963000  *   0.66783000  *
    56       H          1.95302000  *  -3.60041000  *   1.26466000  *
    57       H          2.15125000  *  -5.59882000  *  -0.25518000  *
    58       H          1.27870000  *  -5.28831000  *  -2.67331000  *
    59       H         -3.02030000  *  -3.27203000  *   4.95783000  *
    60       H         -0.90614000  *   2.21725000  *  -1.43172000  *
    61       H         -1.58717000  *   0.58637000  *  -1.41142000  *
    62       H         -3.13605000  *   1.13963000  *   0.41161000  *
    63       H         -3.42000000  *   2.22748000  *  -0.99096000  *
    64       H         -2.13799000  *   4.03365000  *   0.03903000  *
    65       H         -1.63312000  *   2.24093000  *   2.51426000  *
    66       H         -1.05314000  *   3.91799000  *   2.25531000  *
    67       H          0.67421000  *   2.11944000  *   1.90586000  *
    68       H          0.42324000  *   3.04748000  *   0.38059000  *
    69       H         -4.05364000  *   5.44892000  *   0.46550000  *
    70       H         -6.16978000  *   5.93112000  *   1.64979000  *
    71       H         -7.07998000  *   4.31674000  *   3.29714000  *
    72       H         -5.87447000  *   2.20327000  *   3.75681000  *
    73       H         -3.79389000  *   1.69031000  *   2.59252000  *
    74       C         -3.40324000  *  -1.05325000  *  -1.84579000  *
    75       O         -2.40973000  *  -1.43399000  *  -2.44525000  *
    76       O         -3.52234000  *  -1.29248000  *  -0.53095000  *
    77       C         -4.43085000  *  -0.25094000  *  -2.51384000  *
    78       C         -4.18477000  *   0.33507000  *  -3.75949000  *
    79       C         -5.66496000  *  -0.06174000  *  -1.88301000  *
    80       C         -5.16570000  *   1.12416000  *  -4.38183000  *
    81       H         -3.21960000  *   0.19482000  *  -4.23218000  *
    82       C         -6.67399000  *   0.69488000  *  -2.49223000  *
    83       H         -5.84770000  *  -0.52245000  *  -0.91918000  *
    84       C         -6.41153000  *   1.28982000  *  -3.74182000  *
    85       H         -7.17876000  *   1.88570000  *  -4.21627000  *
    86       N         -7.94160000  *   0.85053000  *  -1.85039000  *
    87       O         -8.15679000  *   0.33012000  *  -0.79769000  *
    88       O         -8.81159000  *   1.47989000  *  -2.37437000  *
    89       N         -4.89667000  *   1.75028000  *  -5.63783000  *
    90       O         -5.72609000  *   2.43060000  *  -6.16432000  *
    91       O         -3.83059000  *   1.62806000  *  -6.16062000  *
    92       H          0.98695000  *  -1.42790000  *  -2.23381000  *
    93       H          1.45212000  *   0.38082000  *   0.46623000  *
 


          CARTESIAN COORDINATES 

    NO.       ATOM           X           Y           Z

     1         C          3.0883     -3.9676     -1.4079
     2         C          2.5816     -2.7632     -2.2564
     3         C         -0.6348     -6.8793     -1.9399
     4         C         -0.3581     -5.7184     -1.3392
     5         C          0.5482     -0.9513      2.7494
     6         C         -1.3694     -2.3182      2.1021
     7         C         -1.6819     -2.4397      3.4821
     8         C          0.1890     -1.1152      4.0850
     9         C         -2.2000     -3.0178      1.1832
    10         C         -3.3110     -3.7752      1.6159
    11         C         -3.5907     -3.8471      2.9786
    12         O         -4.1308     -4.4605      0.7706
    13         N         -0.9070     -1.8361      4.4168
    14         C         -4.1916     -4.3715     -0.6065
    15         C          0.1654     -1.2614      0.2480
    16         C          1.2754     -2.2122     -0.2876
    17         C          0.2540     -3.3948     -2.1893
    18         C          1.3205     -3.6397      0.3510
    19         C          1.8645     -4.6288     -0.7158
    20         C          0.7725     -4.8181     -1.7989
    21         C         -0.2268     -1.5235      1.7226
    22         N          1.2394     -2.3394     -1.7834
    23         C         -2.7851     -3.1901      3.9039
    24         N          0.5592      0.1504     -0.0260
    25         C         -0.5085      1.0600      0.3880
    26         C         -1.3964      1.4581     -0.7819
    27         C         -2.7004      1.9711     -0.1830
    28         C         -2.4536      3.2052      0.7137
    29         C         -1.3076      2.9658      1.7406
    30         C         -0.0563      2.3463      1.1007
    31         C         -3.7470      3.5385      1.4380
    32         C         -4.4362      4.7357      1.1841
    33         C         -5.6368      5.0119      1.8518
    34         C         -6.1541      4.1026      2.7799
    35         C         -5.4784      2.9118      3.0400
    36         C         -4.2889      2.6275      2.3728
    37         H          3.6517     -4.6611     -2.0683
    38         H          3.7793     -3.6250     -0.6070
    39         H          2.4903     -3.0692     -3.3252
    40         H          3.3222     -1.9346     -2.2336
    41         H         -1.4478     -7.4979     -1.5719
    42         H         -0.0584     -7.2264     -2.7911
    43         H         -0.9657     -5.4291     -0.4879
    44         H          1.4239     -0.3589      2.5325
    45         H          0.7812     -0.6586      4.8663
    46         H         -1.9974     -3.0111      0.1343
    47         H         -4.4397     -4.4252      3.3232
    48         H         -4.9193     -5.1170     -0.9858
    49         H         -4.5770     -3.3818     -0.9092
    50         H         -3.2058     -4.5729     -1.0718
    51         H         -0.7300     -1.4578     -0.3528
    52         H          2.2449     -1.7429      0.0051
    53         H          0.0176     -3.3657     -3.2757
    54         H         -0.7061     -3.1975     -1.6794
    55         H          0.3249     -3.9996      0.6678
    56         H          1.9530     -3.6004      1.2647
    57         H          2.1513     -5.5988     -0.2552
    58         H          1.2787     -5.2883     -2.6733
    59         H         -3.0203     -3.2720      4.9578
    60         H         -0.9061      2.2172     -1.4317
    61         H         -1.5872      0.5864     -1.4114
    62         H         -3.1361      1.1396      0.4116
    63         H         -3.4200      2.2275     -0.9910
    64         H         -2.1380      4.0336      0.0390
    65         H         -1.6331      2.2409      2.5143
    66         H         -1.0531      3.9180      2.2553
    67         H          0.6742      2.1194      1.9059
    68         H          0.4232      3.0475      0.3806
    69         H         -4.0536      5.4489      0.4655
    70         H         -6.1698      5.9311      1.6498
    71         H         -7.0800      4.3167      3.2971
    72         H         -5.8745      2.2033      3.7568
    73         H         -3.7939      1.6903      2.5925
    74         C         -3.4032     -1.0533     -1.8458
    75         O         -2.4097     -1.4340     -2.4453
    76         O         -3.5223     -1.2925     -0.5310
    77         C         -4.4309     -0.2509     -2.5138
    78         C         -4.1848      0.3351     -3.7595
    79         C         -5.6650     -0.0617     -1.8830
    80         C         -5.1657      1.1242     -4.3818
    81         H         -3.2196      0.1948     -4.2322
    82         C         -6.6740      0.6949     -2.4922
    83         H         -5.8477     -0.5224     -0.9192
    84         C         -6.4115      1.2898     -3.7418
    85         H         -7.1788      1.8857     -4.2163
    86         N         -7.9416      0.8505     -1.8504
    87         O         -8.1568      0.3301     -0.7977
    88         O         -8.8116      1.4799     -2.3744
    89         N         -4.8967      1.7503     -5.6378
    90         O         -5.7261      2.4306     -6.1643
    91         O         -3.8306      1.6281     -6.1606
    92         H          0.9869     -1.4279     -2.2338
    93         H          1.4521      0.3808      0.4662

 General Reference for PM7:
 "Optimization of Parameters for Semiempirical Methods VI: More Modifications to the 
 NDDO Approximations and Re-optimization of Parameters", J. J. P. Stewart, J. Mol. Mod., 1:32, 19 (2013)
 https://link.springer.com/article/10.1007/s00894-012-1667-x

           Empirical Formula: C39 H42 N5 O7  =    93 atoms



      MOLECULAR POINT GROUP   :   C1  


          UHF CALCULATION, NO. OF ALPHA ELECTRONS =  133
                           NO. OF BETA  ELECTRONS =  132

          Geometry optimization using L-BFGS
 CYCLE:     1 TIME:   0.613 TIME LEFT:  2.00D  GRAD.:   344.752 HEAT:  43.03785
 CYCLE:     2 TIME:   0.152 TIME LEFT:  2.00D  GRAD.:   337.813 HEAT:  41.86014
 CYCLE:     3 TIME:   0.262 TIME LEFT:  2.00D  GRAD.:   173.427 HEAT:  11.64470
 CYCLE:     4 TIME:   0.277 TIME LEFT:  2.00D  GRAD.:   338.052 HEAT:  41.85946
 CYCLE:     5 TIME:   0.203 TIME LEFT:  2.00D  GRAD.:   173.444 HEAT:  11.64789
 CYCLE:     6 TIME:   0.164 TIME LEFT:  2.00D  GRAD.:    76.134 HEAT:  6.644828
 CYCLE:     7 TIME:   0.176 TIME LEFT:  2.00D  GRAD.:    66.479 HEAT:  4.412080
 CYCLE:     8 TIME:   0.215 TIME LEFT:  2.00D  GRAD.:    66.720 HEAT:-0.3179229
 CYCLE:     9 TIME:   0.191 TIME LEFT:  2.00D  GRAD.:   102.214 HEAT: -1.599824
 CYCLE:    10 TIME:   0.160 TIME LEFT:  2.00D  GRAD.:    44.909 HEAT: -3.548355
 CYCLE:    11 TIME:   0.172 TIME LEFT:  2.00D  GRAD.:    30.533 HEAT: -4.771000
 CYCLE:    12 TIME:   0.172 TIME LEFT:  2.00D  GRAD.:    34.057 HEAT: -5.686116
 CYCLE:    13 TIME:   0.164 TIME LEFT:  2.00D  GRAD.:    61.734 HEAT: -6.541560
 CYCLE:    14 TIME:   0.148 TIME LEFT:  2.00D  GRAD.:    27.093 HEAT: -7.292789
 CYCLE:    15 TIME:   0.156 TIME LEFT:  2.00D  GRAD.:    19.703 HEAT: -7.574466
 CYCLE:    16 TIME:   0.176 TIME LEFT:  2.00D  GRAD.:    22.251 HEAT: -8.098757
 CYCLE:    17 TIME:   0.172 TIME LEFT:  2.00D  GRAD.:    52.273 HEAT: -8.596090
 CYCLE:    18 TIME:   0.172 TIME LEFT:  2.00D  GRAD.:    27.688 HEAT: -9.205750
 CYCLE:    19 TIME:   0.191 TIME LEFT:  2.00D  GRAD.:    20.219 HEAT: -9.698853
 CYCLE:    20 TIME:   0.164 TIME LEFT:  2.00D  GRAD.:    21.489 HEAT: -10.06873
 CYCLE:    21 TIME:   0.180 TIME LEFT:  2.00D  GRAD.:    35.078 HEAT: -10.66763
 CYCLE:    22 TIME:   0.195 TIME LEFT:  2.00D  GRAD.:    36.028 HEAT: -11.06419
 CYCLE:    23 TIME:   0.152 TIME LEFT:  2.00D  GRAD.:    17.136 HEAT: -11.45160
 CYCLE:    24 TIME:   0.184 TIME LEFT:  2.00D  GRAD.:    16.238 HEAT: -11.72084
 CYCLE:    25 TIME:   0.156 TIME LEFT:  2.00D  GRAD.:    21.660 HEAT: -12.00691
 CYCLE:    26 TIME:   0.184 TIME LEFT:  2.00D  GRAD.:    29.748 HEAT: -12.37155
 CYCLE:    27 TIME:   0.188 TIME LEFT:  2.00D  GRAD.:    19.498 HEAT: -12.71819
 CYCLE:    28 TIME:   0.180 TIME LEFT:  2.00D  GRAD.:    18.429 HEAT: -13.01553
 CYCLE:    29 TIME:   0.180 TIME LEFT:  2.00D  GRAD.:    24.407 HEAT: -13.29975
 CYCLE:    30 TIME:   0.164 TIME LEFT:  2.00D  GRAD.:    21.678 HEAT: -13.66420
 CYCLE:    31 TIME:   0.172 TIME LEFT:  2.00D  GRAD.:    19.795 HEAT: -14.01116
 CYCLE:    32 TIME:   0.184 TIME LEFT:  2.00D  GRAD.:    18.976 HEAT: -14.35047
 CYCLE:    33 TIME:   0.195 TIME LEFT:  2.00D  GRAD.:    22.250 HEAT: -14.63945
 CYCLE:    34 TIME:   0.168 TIME LEFT:  2.00D  GRAD.:    18.850 HEAT: -14.96729
 CYCLE:    35 TIME:   0.168 TIME LEFT:  2.00D  GRAD.:    18.087 HEAT: -15.25507
 CYCLE:    36 TIME:   0.160 TIME LEFT:  2.00D  GRAD.:    21.025 HEAT: -15.52751
 CYCLE:    37 TIME:   0.164 TIME LEFT:  2.00D  GRAD.:    18.137 HEAT: -15.81722
 CYCLE:    38 TIME:   0.184 TIME LEFT:  2.00D  GRAD.:    20.525 HEAT: -16.19857
 CYCLE:    39 TIME:   0.180 TIME LEFT:  2.00D  GRAD.:    30.396 HEAT: -16.44626
 CYCLE:    40 TIME:   0.168 TIME LEFT:  2.00D  GRAD.:    16.930 HEAT: -16.69079
 CYCLE:    41 TIME:   0.168 TIME LEFT:  2.00D  GRAD.:    17.168 HEAT: -16.92581
 CYCLE:    42 TIME:   0.215 TIME LEFT:  2.00D  GRAD.:    22.111 HEAT: -17.21055
 CYCLE:    43 TIME:   0.184 TIME LEFT:  2.00D  GRAD.:    41.864 HEAT: -17.50858
 CYCLE:    44 TIME:   0.191 TIME LEFT:  2.00D  GRAD.:    19.964 HEAT: -17.91868
 CYCLE:    45 TIME:   0.168 TIME LEFT:  2.00D  GRAD.:    15.687 HEAT: -18.15138
 CYCLE:    46 TIME:   0.180 TIME LEFT:  2.00D  GRAD.:    18.633 HEAT: -18.43062
 CYCLE:    47 TIME:   0.184 TIME LEFT:  2.00D  GRAD.:    34.558 HEAT: -18.67130
 CYCLE:    48 TIME:   0.188 TIME LEFT:  2.00D  GRAD.:    20.118 HEAT: -18.97044
 CYCLE:    49 TIME:   0.184 TIME LEFT:  2.00D  GRAD.:    15.142 HEAT: -19.24305
 CYCLE:    50 TIME:   0.207 TIME LEFT:  2.00D  GRAD.:    18.743 HEAT: -19.46717
 CYCLE:    51 TIME:   0.180 TIME LEFT:  2.00D  GRAD.:    28.913 HEAT: -19.73900
 CYCLE:    52 TIME:   0.180 TIME LEFT:  2.00D  GRAD.:    17.206 HEAT: -20.01570
 CYCLE:    53 TIME:   0.184 TIME LEFT:  2.00D  GRAD.:    15.653 HEAT: -20.26719
 CYCLE:    54 TIME:   0.195 TIME LEFT:  2.00D  GRAD.:    21.968 HEAT: -20.49604
 CYCLE:    55 TIME:   0.180 TIME LEFT:  2.00D  GRAD.:    21.451 HEAT: -20.74753
 CYCLE:    56 TIME:   0.199 TIME LEFT:  2.00D  GRAD.:    15.891 HEAT: -20.96429
 CYCLE:    57 TIME:   0.180 TIME LEFT:  2.00D  GRAD.:    17.109 HEAT: -21.17794
 CYCLE:    58 TIME:   0.125 TIME LEFT:  2.00D  GRAD.:    18.166 HEAT: -21.36047
 CYCLE:    59 TIME:   0.156 TIME LEFT:  2.00D  GRAD.:    21.658 HEAT: -21.68317
 CYCLE:    60 TIME:   0.164 TIME LEFT:  2.00D  GRAD.:    26.166 HEAT: -21.99522
 CYCLE:    61 TIME:   0.125 TIME LEFT:  2.00D  GRAD.:    18.848 HEAT: -22.28919
 CYCLE:    62 TIME:   0.152 TIME LEFT:  2.00D  GRAD.:    17.392 HEAT: -22.57422
 CYCLE:    63 TIME:   0.152 TIME LEFT:  2.00D  GRAD.:    23.199 HEAT: -22.88223
 CYCLE:    64 TIME:   0.172 TIME LEFT:  2.00D  GRAD.:    28.904 HEAT: -23.19921
 CYCLE:    65 TIME:   0.137 TIME LEFT:  2.00D  GRAD.:    18.625 HEAT: -23.50170
 CYCLE:    66 TIME:   0.137 TIME LEFT:  2.00D  GRAD.:    18.880 HEAT: -23.78611
 CYCLE:    67 TIME:   0.148 TIME LEFT:  2.00D  GRAD.:    26.736 HEAT: -24.12550
 CYCLE:    68 TIME:   0.145 TIME LEFT:  2.00D  GRAD.:    31.829 HEAT: -24.46647
 CYCLE:    69 TIME:   0.137 TIME LEFT:  2.00D  GRAD.:    20.932 HEAT: -24.84177
 CYCLE:    70 TIME:   0.180 TIME LEFT:  2.00D  GRAD.:    21.747 HEAT: -25.23432
 CYCLE:    71 TIME:   0.164 TIME LEFT:  2.00D  GRAD.:    25.469 HEAT: -25.62548
 CYCLE:    72 TIME:   0.145 TIME LEFT:  2.00D  GRAD.:    25.089 HEAT: -26.01652
 CYCLE:    73 TIME:   0.137 TIME LEFT:  2.00D  GRAD.:    31.322 HEAT: -26.39495
 CYCLE:    74 TIME:   0.133 TIME LEFT:  2.00D  GRAD.:    28.247 HEAT: -26.74322
 CYCLE:    75 TIME:   0.121 TIME LEFT:  2.00D  GRAD.:    18.737 HEAT: -27.00744
 CYCLE:    76 TIME:   0.164 TIME LEFT:  2.00D  GRAD.:    15.658 HEAT: -27.31678
 CYCLE:    77 TIME:   0.148 TIME LEFT:  2.00D  GRAD.:    23.215 HEAT: -27.56859
 CYCLE:    78 TIME:   0.164 TIME LEFT:  2.00D  GRAD.:    18.476 HEAT: -27.84443
 CYCLE:    79 TIME:   0.121 TIME LEFT:  2.00D  GRAD.:    20.889 HEAT: -28.09247
 CYCLE:    80 TIME:   0.184 TIME LEFT:  2.00D  GRAD.:    19.009 HEAT: -28.41132
 CYCLE:    81 TIME:   0.129 TIME LEFT:  2.00D  GRAD.:    21.847 HEAT: -28.63824
 CYCLE:    82 TIME:   0.121 TIME LEFT:  2.00D  GRAD.:    15.381 HEAT: -28.88437
 CYCLE:    83 TIME:   0.176 TIME LEFT:  2.00D  GRAD.:    19.372 HEAT: -29.10081
 CYCLE:    84 TIME:   0.121 TIME LEFT:  2.00D  GRAD.:    16.814 HEAT: -29.28100
 CYCLE:    85 TIME:   0.176 TIME LEFT:  2.00D  GRAD.:    13.958 HEAT: -29.44795
 CYCLE:    86 TIME:   0.137 TIME LEFT:  2.00D  GRAD.:    23.560 HEAT: -29.67723
 CYCLE:    87 TIME:   0.145 TIME LEFT:  2.00D  GRAD.:    19.990 HEAT: -29.84905
 CYCLE:    88 TIME:   0.121 TIME LEFT:  2.00D  GRAD.:    13.911 HEAT: -29.97387
 CYCLE:    89 TIME:   0.141 TIME LEFT:  2.00D  GRAD.:    12.092 HEAT: -30.21918
 CYCLE:    90 TIME:   0.145 TIME LEFT:  2.00D  GRAD.:    22.958 HEAT: -30.36959
 CYCLE:    91 TIME:   0.172 TIME LEFT:  2.00D  GRAD.:    14.108 HEAT: -30.54071
 CYCLE:    92 TIME:   0.148 TIME LEFT:  2.00D  GRAD.:    11.715 HEAT: -30.70812
 CYCLE:    93 TIME:   0.145 TIME LEFT:  2.00D  GRAD.:    15.957 HEAT: -30.84337
 CYCLE:    94 TIME:   0.141 TIME LEFT:  2.00D  GRAD.:    15.874 HEAT: -31.03981
 CYCLE:    95 TIME:   0.152 TIME LEFT:  2.00D  GRAD.:    25.528 HEAT: -31.21301
 CYCLE:    96 TIME:   0.133 TIME LEFT:  2.00D  GRAD.:    12.715 HEAT: -31.44072
 CYCLE:    97 TIME:   0.152 TIME LEFT:  2.00D  GRAD.:    12.716 HEAT: -31.57024
 CYCLE:    98 TIME:   0.160 TIME LEFT:  2.00D  GRAD.:    17.591 HEAT: -31.74621
 CYCLE:    99 TIME:   0.125 TIME LEFT:  2.00D  GRAD.:    25.098 HEAT: -31.86763
 CYCLE:   100 TIME:   0.109 TIME LEFT:  2.00D  GRAD.:    10.973 HEAT: -32.01290
 CYCLE:   101 TIME:   0.145 TIME LEFT:  2.00D  GRAD.:    10.242 HEAT: -32.10686
 CYCLE:   102 TIME:   0.184 TIME LEFT:  2.00D  GRAD.:    12.698 HEAT: -32.21554
 CYCLE:   103 TIME:   0.164 TIME LEFT:  2.00D  GRAD.:    27.771 HEAT: -32.36493
 CYCLE:   104 TIME:   0.145 TIME LEFT:  2.00D  GRAD.:    13.635 HEAT: -32.54305
 CYCLE:   105 TIME:   0.133 TIME LEFT:  2.00D  GRAD.:     9.830 HEAT: -32.64645
 CYCLE:   106 TIME:   0.211 TIME LEFT:  2.00D  GRAD.:    13.522 HEAT: -32.75396
 CYCLE:   107 TIME:   0.125 TIME LEFT:  2.00D  GRAD.:    20.591 HEAT: -32.85254
 CYCLE:   108 TIME:   0.133 TIME LEFT:  2.00D  GRAD.:    14.725 HEAT: -32.97456
 CYCLE:   109 TIME:   0.121 TIME LEFT:  2.00D  GRAD.:    12.035 HEAT: -33.17525
 CYCLE:   110 TIME:   0.164 TIME LEFT:  2.00D  GRAD.:    17.763 HEAT: -33.25537
 CYCLE:   111 TIME:   0.129 TIME LEFT:  2.00D  GRAD.:    12.938 HEAT: -33.34831
 CYCLE:   112 TIME:   0.152 TIME LEFT:  2.00D  GRAD.:    10.725 HEAT: -33.51990
 CYCLE:   113 TIME:   0.133 TIME LEFT:  2.00D  GRAD.:    15.320 HEAT: -33.62676
 CYCLE:   114 TIME:   0.133 TIME LEFT:  2.00D  GRAD.:    14.006 HEAT: -33.78769
 CYCLE:   115 TIME:   0.172 TIME LEFT:  2.00D  GRAD.:    22.597 HEAT: -33.93897
 CYCLE:   116 TIME:   0.184 TIME LEFT:  2.00D  GRAD.:    13.519 HEAT: -34.12545
 CYCLE:   117 TIME:   0.160 TIME LEFT:  2.00D  GRAD.:    11.335 HEAT: -34.23956
 CYCLE:   118 TIME:   0.168 TIME LEFT:  2.00D  GRAD.:    13.929 HEAT: -34.44137
 CYCLE:   119 TIME:   0.207 TIME LEFT:  2.00D  GRAD.:    28.641 HEAT: -34.57549
 CYCLE:   120 TIME:   0.141 TIME LEFT:  2.00D  GRAD.:    14.291 HEAT: -34.75064
 CYCLE:   121 TIME:   0.164 TIME LEFT:  2.00D  GRAD.:    10.270 HEAT: -34.89380
 CYCLE:   122 TIME:   0.172 TIME LEFT:  2.00D  GRAD.:    12.481 HEAT: -34.99803
 CYCLE:   123 TIME:   0.152 TIME LEFT:  2.00D  GRAD.:    35.337 HEAT: -35.04084
 CYCLE:   124 TIME:   0.133 TIME LEFT:  2.00D  GRAD.:    10.384 HEAT: -35.22815
 CYCLE:   125 TIME:   0.164 TIME LEFT:  2.00D  GRAD.:     7.211 HEAT: -35.27722
 CYCLE:   126 TIME:   0.176 TIME LEFT:  2.00D  GRAD.:    10.248 HEAT: -35.33981
 CYCLE:   127 TIME:   0.125 TIME LEFT:  2.00D  GRAD.:    12.504 HEAT: -35.42187
 CYCLE:   128 TIME:   0.141 TIME LEFT:  2.00D  GRAD.:    19.425 HEAT: -35.52343
 CYCLE:   129 TIME:   0.148 TIME LEFT:  2.00D  GRAD.:    11.905 HEAT: -35.62937
 CYCLE:   130 TIME:   0.160 TIME LEFT:  2.00D  GRAD.:     9.748 HEAT: -35.69956
 CYCLE:   131 TIME:   0.176 TIME LEFT:  2.00D  GRAD.:    11.346 HEAT: -35.80767
 CYCLE:   132 TIME:   0.148 TIME LEFT:  2.00D  GRAD.:    24.033 HEAT: -35.88123
 CYCLE:   133 TIME:   0.121 TIME LEFT:  2.00D  GRAD.:    10.859 HEAT: -35.99431
 CYCLE:   134 TIME:   0.152 TIME LEFT:  2.00D  GRAD.:     9.575 HEAT: -36.07660
 CYCLE:   135 TIME:   0.160 TIME LEFT:  2.00D  GRAD.:    13.810 HEAT: -36.17497
 CYCLE:   136 TIME:   0.152 TIME LEFT:  2.00D  GRAD.:    17.283 HEAT: -36.32564
 CYCLE:   137 TIME:   0.145 TIME LEFT:  2.00D  GRAD.:    17.236 HEAT: -36.47424
 CYCLE:   138 TIME:   0.203 TIME LEFT:  2.00D  GRAD.:    14.504 HEAT: -36.59751
 CYCLE:   139 TIME:   0.160 TIME LEFT:  2.00D  GRAD.:    11.904 HEAT: -36.70388
 CYCLE:   140 TIME:   0.160 TIME LEFT:  2.00D  GRAD.:    11.502 HEAT: -36.82103
 CYCLE:   141 TIME:   0.164 TIME LEFT:  2.00D  GRAD.:    20.180 HEAT: -36.95729
 CYCLE:   142 TIME:   0.145 TIME LEFT:  2.00D  GRAD.:    10.776 HEAT: -37.08034
 CYCLE:   143 TIME:   0.188 TIME LEFT:  2.00D  GRAD.:    10.246 HEAT: -37.14878
 CYCLE:   144 TIME:   0.152 TIME LEFT:  2.00D  GRAD.:    15.179 HEAT: -37.24904
 CYCLE:   145 TIME:   0.129 TIME LEFT:  2.00D  GRAD.:    15.677 HEAT: -37.32568
 CYCLE:   146 TIME:   0.121 TIME LEFT:  2.00D  GRAD.:     9.700 HEAT: -37.40436
 CYCLE:   147 TIME:   0.141 TIME LEFT:  2.00D  GRAD.:     9.842 HEAT: -37.49949
 CYCLE:   148 TIME:   0.145 TIME LEFT:  2.00D  GRAD.:    13.393 HEAT: -37.56035
 CYCLE:   149 TIME:   0.191 TIME LEFT:  2.00D  GRAD.:    10.527 HEAT: -37.63752
 CYCLE:   150 TIME:   0.152 TIME LEFT:  2.00D  GRAD.:    11.284 HEAT: -37.74907
 CYCLE:   151 TIME:   0.141 TIME LEFT:  2.00D  GRAD.:    14.556 HEAT: -37.83410
 CYCLE:   152 TIME:   0.180 TIME LEFT:  2.00D  GRAD.:    10.061 HEAT: -37.92044
 CYCLE:   153 TIME:   0.184 TIME LEFT:  2.00D  GRAD.:    10.377 HEAT: -38.02041
 CYCLE:   154 TIME:   0.152 TIME LEFT:  2.00D  GRAD.:    13.594 HEAT: -38.10100
 CYCLE:   155 TIME:   0.145 TIME LEFT:  2.00D  GRAD.:    10.739 HEAT: -38.20041
 CYCLE:   156 TIME:   0.180 TIME LEFT:  2.00D  GRAD.:    11.555 HEAT: -38.30958
 CYCLE:   157 TIME:   0.164 TIME LEFT:  2.00D  GRAD.:    13.098 HEAT: -38.41298
 CYCLE:   158 TIME:   0.117 TIME LEFT:  2.00D  GRAD.:    11.844 HEAT: -38.52203
 CYCLE:   159 TIME:   0.168 TIME LEFT:  2.00D  GRAD.:    16.297 HEAT: -38.67759
 CYCLE:   160 TIME:   0.160 TIME LEFT:  2.00D  GRAD.:    15.680 HEAT: -38.79421
 CYCLE:   161 TIME:   0.137 TIME LEFT:  2.00D  GRAD.:    11.034 HEAT: -38.88140
 CYCLE:   162 TIME:   0.137 TIME LEFT:  2.00D  GRAD.:    11.267 HEAT: -39.01920
 CYCLE:   163 TIME:   0.160 TIME LEFT:  2.00D  GRAD.:    14.638 HEAT: -39.14175
 CYCLE:   164 TIME:   0.172 TIME LEFT:  2.00D  GRAD.:    12.788 HEAT: -39.30748
 CYCLE:   165 TIME:   0.168 TIME LEFT:  2.00D  GRAD.:    15.774 HEAT: -39.41437
 CYCLE:   166 TIME:   0.152 TIME LEFT:  2.00D  GRAD.:    10.149 HEAT: -39.50837
 CYCLE:   167 TIME:   0.137 TIME LEFT:  2.00D  GRAD.:    10.209 HEAT: -39.60223
 CYCLE:   168 TIME:   0.184 TIME LEFT:  2.00D  GRAD.:    16.997 HEAT: -39.70238
 CYCLE:   169 TIME:   0.180 TIME LEFT:  2.00D  GRAD.:    12.712 HEAT: -39.82508
 CYCLE:   170 TIME:   0.188 TIME LEFT:  2.00D  GRAD.:    10.284 HEAT: -39.93799
 CYCLE:   171 TIME:   0.168 TIME LEFT:  2.00D  GRAD.:    16.326 HEAT: -40.07262
 CYCLE:   172 TIME:   0.160 TIME LEFT:  2.00D  GRAD.:    17.204 HEAT: -40.17238
 CYCLE:   173 TIME:   0.129 TIME LEFT:  2.00D  GRAD.:    11.567 HEAT: -40.25858
 CYCLE:   174 TIME:   0.141 TIME LEFT:  2.00D  GRAD.:    10.689 HEAT: -40.39803
 CYCLE:   175 TIME:   0.168 TIME LEFT:  2.00D  GRAD.:    12.418 HEAT: -40.48781
 CYCLE:   176 TIME:   0.164 TIME LEFT:  2.00D  GRAD.:    13.549 HEAT: -40.61240
 CYCLE:   177 TIME:   0.168 TIME LEFT:  2.00D  GRAD.:    19.804 HEAT: -40.67751
 CYCLE:   178 TIME:   0.137 TIME LEFT:  2.00D  GRAD.:     9.685 HEAT: -40.76465
 CYCLE:   179 TIME:   0.121 TIME LEFT:  2.00D  GRAD.:     8.096 HEAT: -40.82945
 CYCLE:   180 TIME:   0.176 TIME LEFT:  2.00D  GRAD.:    10.255 HEAT: -40.90388
 CYCLE:   181 TIME:   0.176 TIME LEFT:  2.00D  GRAD.:    22.952 HEAT: -40.93602
 CYCLE:   182 TIME:   0.152 TIME LEFT:  2.00D  GRAD.:     9.738 HEAT: -41.03889
 CYCLE:   183 TIME:   0.152 TIME LEFT:  2.00D  GRAD.:     7.621 HEAT: -41.08243
 CYCLE:   184 TIME:   0.148 TIME LEFT:  2.00D  GRAD.:     9.302 HEAT: -41.14054
 CYCLE:   185 TIME:   0.164 TIME LEFT:  2.00D  GRAD.:    12.086 HEAT: -41.24273
 CYCLE:   186 TIME:   0.207 TIME LEFT:  2.00D  GRAD.:    16.581 HEAT: -41.31625
 CYCLE:   187 TIME:   0.145 TIME LEFT:  2.00D  GRAD.:    11.154 HEAT: -41.40554
 CYCLE:   188 TIME:   0.176 TIME LEFT:  2.00D  GRAD.:    10.550 HEAT: -41.49168
 CYCLE:   189 TIME:   0.180 TIME LEFT:  2.00D  GRAD.:    12.911 HEAT: -41.60500
 CYCLE:   190 TIME:   0.176 TIME LEFT:  2.00D  GRAD.:    16.066 HEAT: -41.71168
 CYCLE:   191 TIME:   0.145 TIME LEFT:  2.00D  GRAD.:    13.006 HEAT: -41.81348
 CYCLE:   192 TIME:   0.164 TIME LEFT:  2.00D  GRAD.:    11.423 HEAT: -41.90802
 CYCLE:   193 TIME:   0.160 TIME LEFT:  2.00D  GRAD.:    11.946 HEAT: -41.99504
 CYCLE:   194 TIME:   0.188 TIME LEFT:  2.00D  GRAD.:    10.097 HEAT: -42.06548
 CYCLE:   195 TIME:   0.168 TIME LEFT:  2.00D  GRAD.:     9.874 HEAT: -42.15922
 CYCLE:   196 TIME:   0.160 TIME LEFT:  2.00D  GRAD.:    14.025 HEAT: -42.21339
 CYCLE:   197 TIME:   0.172 TIME LEFT:  2.00D  GRAD.:     7.182 HEAT: -42.26705
 CYCLE:   198 TIME:   0.160 TIME LEFT:  2.00D  GRAD.:     8.072 HEAT: -42.30544
 CYCLE:   199 TIME:   0.160 TIME LEFT:  2.00D  GRAD.:    10.977 HEAT: -42.37959
 CYCLE:   200 TIME:   0.148 TIME LEFT:  2.00D  GRAD.:    15.762 HEAT: -42.46264
 CYCLE:   201 TIME:   0.184 TIME LEFT:  2.00D  GRAD.:     8.249 HEAT: -42.54088
 CYCLE:   202 TIME:   0.199 TIME LEFT:  2.00D  GRAD.:     7.982 HEAT: -42.59125
 CYCLE:   203 TIME:   0.199 TIME LEFT:  2.00D  GRAD.:    14.304 HEAT: -42.64524
 CYCLE:   204 TIME:   0.156 TIME LEFT:  2.00D  GRAD.:     9.662 HEAT: -42.69158
 CYCLE:   205 TIME:   0.199 TIME LEFT:  2.00D  GRAD.:     7.618 HEAT: -42.74117
 CYCLE:   206 TIME:   0.211 TIME LEFT:  2.00D  GRAD.:     9.133 HEAT: -42.79406
 CYCLE:   207 TIME:   0.188 TIME LEFT:  2.00D  GRAD.:    11.470 HEAT: -42.86071
 CYCLE:   208 TIME:   0.164 TIME LEFT:  2.00D  GRAD.:    18.787 HEAT: -42.90605
 CYCLE:   209 TIME:   0.152 TIME LEFT:  2.00D  GRAD.:     7.904 HEAT: -42.98124
 CYCLE:   210 TIME:   0.191 TIME LEFT:  2.00D  GRAD.:     5.855 HEAT: -43.01876
 CYCLE:   211 TIME:   0.152 TIME LEFT:  2.00D  GRAD.:     6.793 HEAT: -43.04945
 CYCLE:   212 TIME:   0.180 TIME LEFT:  2.00D  GRAD.:    14.871 HEAT: -43.06968
 CYCLE:   213 TIME:   0.160 TIME LEFT:  2.00D  GRAD.:     4.998 HEAT: -43.11492
 CYCLE:   214 TIME:   0.203 TIME LEFT:  2.00D  GRAD.:     4.683 HEAT: -43.13160
 CYCLE:   215 TIME:   0.164 TIME LEFT:  2.00D  GRAD.:     6.301 HEAT: -43.15730
 CYCLE:   216 TIME:   0.152 TIME LEFT:  2.00D  GRAD.:     8.158 HEAT: -43.18121
 CYCLE:   217 TIME:   0.176 TIME LEFT:  2.00D  GRAD.:     5.101 HEAT: -43.20669
 CYCLE:   218 TIME:   0.180 TIME LEFT:  2.00D  GRAD.:     4.018 HEAT: -43.22255
 CYCLE:   219 TIME:   0.156 TIME LEFT:  2.00D  GRAD.:     5.560 HEAT: -43.23929
 CYCLE:   220 TIME:   0.180 TIME LEFT:  2.00D  GRAD.:     5.402 HEAT: -43.25439
 CYCLE:   221 TIME:   0.168 TIME LEFT:  2.00D  GRAD.:     4.589 HEAT: -43.27646
 CYCLE:   222 TIME:   0.188 TIME LEFT:  2.00D  GRAD.:     8.499 HEAT: -43.29941
 CYCLE:   223 TIME:   0.172 TIME LEFT:  2.00D  GRAD.:     4.966 HEAT: -43.32145
 CYCLE:   224 TIME:   0.195 TIME LEFT:  2.00D  GRAD.:     4.678 HEAT: -43.34103
 CYCLE:   225 TIME:   0.184 TIME LEFT:  2.00D  GRAD.:     7.553 HEAT: -43.36742
 CYCLE:   226 TIME:   0.195 TIME LEFT:  2.00D  GRAD.:     8.197 HEAT: -43.38551
 CYCLE:   227 TIME:   0.168 TIME LEFT:  2.00D  GRAD.:     4.817 HEAT: -43.40158
 CYCLE:   228 TIME:   0.160 TIME LEFT:  2.00D  GRAD.:     4.275 HEAT: -43.42297
 CYCLE:   229 TIME:   0.203 TIME LEFT:  2.00D  GRAD.:     5.492 HEAT: -43.43990
 CYCLE:   230 TIME:   0.254 TIME LEFT:  2.00D  GRAD.:    12.080 HEAT: -43.45023
 CYCLE:   231 TIME:   0.188 TIME LEFT:  2.00D  GRAD.:     4.554 HEAT: -43.47578
 CYCLE:   232 TIME:   0.188 TIME LEFT:  2.00D  GRAD.:     3.739 HEAT: -43.48890
 CYCLE:   233 TIME:   0.188 TIME LEFT:  2.00D  GRAD.:     4.992 HEAT: -43.50561
 CYCLE:   234 TIME:   0.184 TIME LEFT:  2.00D  GRAD.:     7.347 HEAT: -43.53065
 CYCLE:   235 TIME:   0.172 TIME LEFT:  2.00D  GRAD.:     9.970 HEAT: -43.54234
 CYCLE:   236 TIME:   0.180 TIME LEFT:  2.00D  GRAD.:     3.479 HEAT: -43.56313
 CYCLE:   237 TIME:   0.156 TIME LEFT:  2.00D  GRAD.:     3.469 HEAT: -43.57137
 CYCLE:   238 TIME:   0.188 TIME LEFT:  2.00D  GRAD.:     4.519 HEAT: -43.58454
 CYCLE:   239 TIME:   0.211 TIME LEFT:  2.00D  GRAD.:     6.657 HEAT: -43.60447
 CYCLE:   240 TIME:   0.238 TIME LEFT:  2.00D  GRAD.:     6.537 HEAT: -43.62238
 CYCLE:   241 TIME:   0.176 TIME LEFT:  2.00D  GRAD.:     3.697 HEAT: -43.63865
 CYCLE:   242 TIME:   0.168 TIME LEFT:  2.00D  GRAD.:     4.632 HEAT: -43.65424
 CYCLE:   243 TIME:   0.164 TIME LEFT:  2.00D  GRAD.:     5.536 HEAT: -43.67290
 CYCLE:   244 TIME:   0.188 TIME LEFT:  2.00D  GRAD.:    10.519 HEAT: -43.69839
 CYCLE:   245 TIME:   0.199 TIME LEFT:  2.00D  GRAD.:     7.625 HEAT: -43.72672
 CYCLE:   246 TIME:   0.145 TIME LEFT:  2.00D  GRAD.:     4.169 HEAT: -43.74630
 CYCLE:   247 TIME:   0.156 TIME LEFT:  2.00D  GRAD.:     4.862 HEAT: -43.76543
 CYCLE:   248 TIME:   0.207 TIME LEFT:  2.00D  GRAD.:     6.323 HEAT: -43.78216
 CYCLE:   249 TIME:   0.164 TIME LEFT:  2.00D  GRAD.:     9.747 HEAT: -43.80673
 CYCLE:   250 TIME:   0.184 TIME LEFT:  2.00D  GRAD.:     5.590 HEAT: -43.83328
 CYCLE:   251 TIME:   0.168 TIME LEFT:  2.00D  GRAD.:     4.481 HEAT: -43.85113
 CYCLE:   252 TIME:   0.148 TIME LEFT:  2.00D  GRAD.:     5.162 HEAT: -43.87235
 CYCLE:   253 TIME:   0.195 TIME LEFT:  2.00D  GRAD.:    13.952 HEAT: -43.88870
 CYCLE:   254 TIME:   0.215 TIME LEFT:  2.00D  GRAD.:     5.830 HEAT: -43.92138
 CYCLE:   255 TIME:   0.195 TIME LEFT:  2.00D  GRAD.:     4.536 HEAT: -43.94009
 CYCLE:   256 TIME:   0.223 TIME LEFT:  2.00D  GRAD.:     5.621 HEAT: -43.95929
 CYCLE:   257 TIME:   0.211 TIME LEFT:  2.00D  GRAD.:    11.140 HEAT: -43.98277
 CYCLE:   258 TIME:   0.168 TIME LEFT:  2.00D  GRAD.:     5.479 HEAT: -44.01497
 CYCLE:   259 TIME:   0.152 TIME LEFT:  2.00D  GRAD.:     4.733 HEAT: -44.03855
 CYCLE:   260 TIME:   0.215 TIME LEFT:  2.00D  GRAD.:     4.768 HEAT: -44.05873
 CYCLE:   261 TIME:   0.199 TIME LEFT:  2.00D  GRAD.:     6.190 HEAT: -44.08244
 CYCLE:   262 TIME:   0.215 TIME LEFT:  2.00D  GRAD.:    10.611 HEAT: -44.09241
 CYCLE:   263 TIME:   0.207 TIME LEFT:  2.00D  GRAD.:     5.476 HEAT: -44.12611
 CYCLE:   264 TIME:   0.195 TIME LEFT:  2.00D  GRAD.:     5.217 HEAT: -44.14849
 CYCLE:   265 TIME:   0.191 TIME LEFT:  2.00D  GRAD.:     9.331 HEAT: -44.17923
 CYCLE:   266 TIME:   0.191 TIME LEFT:  2.00D  GRAD.:     5.845 HEAT: -44.20362
 CYCLE:   267 TIME:   0.160 TIME LEFT:  2.00D  GRAD.:     5.292 HEAT: -44.22698
 CYCLE:   268 TIME:   0.176 TIME LEFT:  2.00D  GRAD.:     5.437 HEAT: -44.25582
 CYCLE:   269 TIME:   0.234 TIME LEFT:  2.00D  GRAD.:    16.718 HEAT: -44.26015
 CYCLE:   270 TIME:   0.191 TIME LEFT:  2.00D  GRAD.:     4.741 HEAT: -44.29817
 CYCLE:   271 TIME:   0.219 TIME LEFT:  2.00D  GRAD.:     4.141 HEAT: -44.30819
 CYCLE:   272 TIME:   0.203 TIME LEFT:  2.00D  GRAD.:     5.812 HEAT: -44.32586
 CYCLE:   273 TIME:   0.141 TIME LEFT:  2.00D  GRAD.:     7.859 HEAT: -44.35213
 CYCLE:   274 TIME:   0.207 TIME LEFT:  2.00D  GRAD.:     6.740 HEAT: -44.38389
 CYCLE:   275 TIME:   0.176 TIME LEFT:  2.00D  GRAD.:     5.417 HEAT: -44.40973
 CYCLE:   276 TIME:   0.188 TIME LEFT:  2.00D  GRAD.:     7.227 HEAT: -44.44516
 CYCLE:   277 TIME:   0.191 TIME LEFT:  2.00D  GRAD.:    11.512 HEAT: -44.49710
 CYCLE:   278 TIME:   0.195 TIME LEFT:  2.00D  GRAD.:     9.399 HEAT: -44.57104
 CYCLE:   279 TIME:   0.160 TIME LEFT:  2.00D  GRAD.:     8.761 HEAT: -44.63935
 CYCLE:   280 TIME:   0.188 TIME LEFT:  2.00D  GRAD.:     9.828 HEAT: -44.71778
 CYCLE:   281 TIME:   0.215 TIME LEFT:  2.00D  GRAD.:    10.718 HEAT: -44.79257
 CYCLE:   282 TIME:   0.207 TIME LEFT:  2.00D  GRAD.:    12.694 HEAT: -44.88780
 CYCLE:   283 TIME:   0.203 TIME LEFT:  2.00D  GRAD.:    29.917 HEAT: -44.85460
 CYCLE:   284 TIME:   0.195 TIME LEFT:  2.00D  GRAD.:     8.326 HEAT: -45.01635
 CYCLE:   285 TIME:   0.242 TIME LEFT:  2.00D  GRAD.:    11.212 HEAT: -45.03059
 CYCLE:   286 TIME:   0.180 TIME LEFT:  2.00D  GRAD.:     8.137 HEAT: -45.10851
 CYCLE:   287 TIME:   0.180 TIME LEFT:  2.00D  GRAD.:     9.569 HEAT: -45.17973
 CYCLE:   288 TIME:   0.188 TIME LEFT:  2.00D  GRAD.:     9.919 HEAT: -45.24596
 CYCLE:   289 TIME:   0.156 TIME LEFT:  2.00D  GRAD.:     7.452 HEAT: -45.30645
 CYCLE:   290 TIME:   0.164 TIME LEFT:  2.00D  GRAD.:    10.197 HEAT: -45.38531
 CYCLE:   291 TIME:   0.148 TIME LEFT:  2.00D  GRAD.:    12.504 HEAT: -45.44923
 CYCLE:   292 TIME:   0.145 TIME LEFT:  2.00D  GRAD.:     8.881 HEAT: -45.52392
 CYCLE:   293 TIME:   0.191 TIME LEFT:  2.00D  GRAD.:    10.848 HEAT: -45.60307
 CYCLE:   294 TIME:   0.129 TIME LEFT:  2.00D  GRAD.:    12.841 HEAT: -45.66062
 CYCLE:   295 TIME:   0.195 TIME LEFT:  2.00D  GRAD.:     8.596 HEAT: -45.72522
 CYCLE:   296 TIME:   0.176 TIME LEFT:  2.00D  GRAD.:     7.607 HEAT: -45.81610
 CYCLE:   297 TIME:   0.160 TIME LEFT:  2.00D  GRAD.:    13.202 HEAT: -45.87163
 CYCLE:   298 TIME:   0.164 TIME LEFT:  2.00D  GRAD.:     8.414 HEAT: -45.93500
 CYCLE:   299 TIME:   0.180 TIME LEFT:  2.00D  GRAD.:     7.382 HEAT: -45.99306
 CYCLE:   300 TIME:   0.250 TIME LEFT:  2.00D  GRAD.:    11.062 HEAT: -46.01006
 CYCLE:   301 TIME:   0.164 TIME LEFT:  2.00D  GRAD.:    19.719 HEAT: -46.03460
 CYCLE:   302 TIME:   0.184 TIME LEFT:  2.00D  GRAD.:     6.369 HEAT: -46.09661
 CYCLE:   303 TIME:   0.129 TIME LEFT:  2.00D  GRAD.:     5.129 HEAT: -46.12899
 CYCLE:   304 TIME:   0.156 TIME LEFT:  2.00D  GRAD.:     6.720 HEAT: -46.17163
 CYCLE:   305 TIME:   0.176 TIME LEFT:  2.00D  GRAD.:    11.075 HEAT: -46.22944
 CYCLE:   306 TIME:   0.172 TIME LEFT:  2.00D  GRAD.:    18.127 HEAT: -46.25587
 CYCLE:   307 TIME:   0.152 TIME LEFT:  2.00D  GRAD.:     7.723 HEAT: -46.32064
 CYCLE:   308 TIME:   0.156 TIME LEFT:  2.00D  GRAD.:     9.621 HEAT: -46.36136
 CYCLE:   309 TIME:   0.145 TIME LEFT:  2.00D  GRAD.:     7.411 HEAT: -46.39895
 CYCLE:   310 TIME:   0.152 TIME LEFT:  2.00D  GRAD.:     7.798 HEAT: -46.46463
 CYCLE:   311 TIME:   0.160 TIME LEFT:  2.00D  GRAD.:    14.389 HEAT: -46.52650
 CYCLE:   312 TIME:   0.148 TIME LEFT:  2.00D  GRAD.:     8.639 HEAT: -46.59897
 CYCLE:   313 TIME:   0.164 TIME LEFT:  2.00D  GRAD.:     7.216 HEAT: -46.65462
 CYCLE:   314 TIME:   0.176 TIME LEFT:  2.00D  GRAD.:    11.901 HEAT: -46.71212
 CYCLE:   315 TIME:   0.156 TIME LEFT:  2.00D  GRAD.:     9.401 HEAT: -46.76959
 CYCLE:   316 TIME:   0.156 TIME LEFT:  2.00D  GRAD.:     7.216 HEAT: -46.81706
 CYCLE:   317 TIME:   0.172 TIME LEFT:  2.00D  GRAD.:     9.496 HEAT: -46.87182
 CYCLE:   318 TIME:   0.145 TIME LEFT:  2.00D  GRAD.:    10.398 HEAT: -46.91159
 CYCLE:   319 TIME:   0.148 TIME LEFT:  2.00D  GRAD.:     7.703 HEAT: -46.94805
 CYCLE:   320 TIME:   0.160 TIME LEFT:  2.00D  GRAD.:     8.263 HEAT: -46.99506
 CYCLE:   321 TIME:   0.141 TIME LEFT:  2.00D  GRAD.:     7.514 HEAT: -47.02699
 CYCLE:   322 TIME:   0.148 TIME LEFT:  2.00D  GRAD.:     5.538 HEAT: -47.06221
 CYCLE:   323 TIME:   0.133 TIME LEFT:  2.00D  GRAD.:     7.155 HEAT: -47.09853
 CYCLE:   324 TIME:   0.164 TIME LEFT:  2.00D  GRAD.:    11.188 HEAT: -47.12213
 CYCLE:   325 TIME:   0.145 TIME LEFT:  2.00D  GRAD.:     5.677 HEAT: -47.15022
 CYCLE:   326 TIME:   0.152 TIME LEFT:  2.00D  GRAD.:     4.666 HEAT: -47.17607
 CYCLE:   327 TIME:   0.145 TIME LEFT:  2.00D  GRAD.:     5.145 HEAT: -47.19442
 CYCLE:   328 TIME:   0.148 TIME LEFT:  2.00D  GRAD.:     9.127 HEAT: -47.22681
 CYCLE:   329 TIME:   0.145 TIME LEFT:  2.00D  GRAD.:     8.758 HEAT: -47.24798
 CYCLE:   330 TIME:   0.125 TIME LEFT:  2.00D  GRAD.:     3.814 HEAT: -47.26522
 CYCLE:   331 TIME:   0.145 TIME LEFT:  2.00D  GRAD.:     4.131 HEAT: -47.27757
 CYCLE:   332 TIME:   0.145 TIME LEFT:  2.00D  GRAD.:     5.170 HEAT: -47.29327
 CYCLE:   333 TIME:   0.145 TIME LEFT:  2.00D  GRAD.:     6.850 HEAT: -47.31866
 CYCLE:   334 TIME:   0.148 TIME LEFT:  2.00D  GRAD.:    12.138 HEAT: -47.32593
 CYCLE:   335 TIME:   0.148 TIME LEFT:  2.00D  GRAD.:     3.620 HEAT: -47.35236
 CYCLE:   336 TIME:   0.191 TIME LEFT:  2.00D  GRAD.:     3.715 HEAT: -47.36189
 CYCLE:   337 TIME:   0.125 TIME LEFT:  2.00D  GRAD.:     4.739 HEAT: -47.37776
 CYCLE:   338 TIME:   0.164 TIME LEFT:  2.00D  GRAD.:     7.604 HEAT: -47.40012
 CYCLE:   339 TIME:   0.184 TIME LEFT:  2.00D  GRAD.:     5.133 HEAT: -47.42445
 CYCLE:   340 TIME:   0.152 TIME LEFT:  2.00D  GRAD.:     3.854 HEAT: -47.44098
 CYCLE:   341 TIME:   0.160 TIME LEFT:  2.00D  GRAD.:     5.879 HEAT: -47.46634
 CYCLE:   342 TIME:   0.145 TIME LEFT:  2.00D  GRAD.:     7.563 HEAT: -47.48273
 CYCLE:   343 TIME:   0.156 TIME LEFT:  2.00D  GRAD.:     5.429 HEAT: -47.50390
 CYCLE:   344 TIME:   0.191 TIME LEFT:  2.00D  GRAD.:     6.124 HEAT: -47.53542
 CYCLE:   345 TIME:   0.188 TIME LEFT:  2.00D  GRAD.:     8.760 HEAT: -47.55229
 CYCLE:   346 TIME:   0.148 TIME LEFT:  2.00D  GRAD.:     5.775 HEAT: -47.57015
 CYCLE:   347 TIME:   0.164 TIME LEFT:  2.00D  GRAD.:     4.793 HEAT: -47.60454
 CYCLE:   348 TIME:   0.148 TIME LEFT:  2.00D  GRAD.:     5.526 HEAT: -47.62446
 CYCLE:   349 TIME:   0.180 TIME LEFT:  2.00D  GRAD.:    17.009 HEAT: -47.63120
 CYCLE:   350 TIME:   0.137 TIME LEFT:  2.00D  GRAD.:     5.377 HEAT: -47.67350
 CYCLE:   351 TIME:   0.152 TIME LEFT:  2.00D  GRAD.:     3.844 HEAT: -47.68933
 CYCLE:   352 TIME:   0.168 TIME LEFT:  2.00D  GRAD.:     4.937 HEAT: -47.70730
 CYCLE:   353 TIME:   0.188 TIME LEFT:  2.00D  GRAD.:     6.514 HEAT: -47.73860
 CYCLE:   354 TIME:   0.152 TIME LEFT:  2.00D  GRAD.:    16.376 HEAT: -47.73990
 CYCLE:   355 TIME:   0.168 TIME LEFT:  2.00D  GRAD.:     4.575 HEAT: -47.78931
 CYCLE:   356 TIME:   0.152 TIME LEFT:  2.00D  GRAD.:     3.429 HEAT: -47.80275
 CYCLE:   357 TIME:   0.148 TIME LEFT:  2.00D  GRAD.:     4.469 HEAT: -47.82115
 CYCLE:   358 TIME:   0.191 TIME LEFT:  2.00D  GRAD.:     7.671 HEAT: -47.83869
 CYCLE:   359 TIME:   0.133 TIME LEFT:  2.00D  GRAD.:     4.945 HEAT: -47.85954
 CYCLE:   360 TIME:   0.184 TIME LEFT:  2.00D  GRAD.:     3.677 HEAT: -47.87625
 CYCLE:   361 TIME:   0.180 TIME LEFT:  2.00D  GRAD.:     5.282 HEAT: -47.89247
 CYCLE:   362 TIME:   0.137 TIME LEFT:  2.00D  GRAD.:     6.850 HEAT: -47.90740
 CYCLE:   363 TIME:   0.129 TIME LEFT:  2.00D  GRAD.:     4.844 HEAT: -47.92432
 CYCLE:   364 TIME:   0.141 TIME LEFT:  2.00D  GRAD.:     5.070 HEAT: -47.94824
 CYCLE:   365 TIME:   0.137 TIME LEFT:  2.00D  GRAD.:     7.028 HEAT: -47.96456
 CYCLE:   366 TIME:   0.148 TIME LEFT:  2.00D  GRAD.:     5.844 HEAT: -47.98516
 CYCLE:   367 TIME:   0.180 TIME LEFT:  2.00D  GRAD.:     5.501 HEAT: -48.01494
 CYCLE:   368 TIME:   0.160 TIME LEFT:  2.00D  GRAD.:     5.878 HEAT: -48.03413
 CYCLE:   369 TIME:   0.164 TIME LEFT:  2.00D  GRAD.:     9.034 HEAT: -48.04987
 CYCLE:   370 TIME:   0.156 TIME LEFT:  2.00D  GRAD.:     5.933 HEAT: -48.07688
 CYCLE:   371 TIME:   0.148 TIME LEFT:  2.00D  GRAD.:     4.992 HEAT: -48.09907
 CYCLE:   372 TIME:   0.168 TIME LEFT:  2.00D  GRAD.:     5.154 HEAT: -48.12228
 CYCLE:   373 TIME:   0.203 TIME LEFT:  2.00D  GRAD.:     4.532 HEAT: -48.14033
 CYCLE:   374 TIME:   0.195 TIME LEFT:  2.00D  GRAD.:    11.690 HEAT: -48.15307
 CYCLE:   375 TIME:   0.145 TIME LEFT:  2.00D  GRAD.:     4.921 HEAT: -48.18489
 CYCLE:   376 TIME:   0.145 TIME LEFT:  2.00D  GRAD.:     4.466 HEAT: -48.20569
 CYCLE:   377 TIME:   0.168 TIME LEFT:  2.00D  GRAD.:     4.717 HEAT: -48.22787
 CYCLE:   378 TIME:   0.172 TIME LEFT:  2.00D  GRAD.:     6.222 HEAT: -48.25417
 CYCLE:   379 TIME:   0.160 TIME LEFT:  2.00D  GRAD.:    13.692 HEAT: -48.25925
 CYCLE:   380 TIME:   0.156 TIME LEFT:  2.00D  GRAD.:     5.149 HEAT: -48.29220
 CYCLE:   381 TIME:   0.145 TIME LEFT:  2.00D  GRAD.:     3.996 HEAT: -48.30618
 CYCLE:   382 TIME:   0.133 TIME LEFT:  2.00D  GRAD.:     5.099 HEAT: -48.32512
 CYCLE:   383 TIME:   0.180 TIME LEFT:  2.00D  GRAD.:     9.531 HEAT: -48.35387
 CYCLE:   384 TIME:   0.195 TIME LEFT:  2.00D  GRAD.:     8.131 HEAT: -48.38294
 CYCLE:   385 TIME:   0.145 TIME LEFT:  2.00D  GRAD.:     4.987 HEAT: -48.40284
 CYCLE:   386 TIME:   0.137 TIME LEFT:  2.00D  GRAD.:     5.988 HEAT: -48.43007
 CYCLE:   387 TIME:   0.137 TIME LEFT:  2.00D  GRAD.:     5.565 HEAT: -48.44420
 CYCLE:   388 TIME:   0.203 TIME LEFT:  2.00D  GRAD.:     4.698 HEAT: -48.46827
 CYCLE:   389 TIME:   0.168 TIME LEFT:  2.00D  GRAD.:     9.970 HEAT: -48.48980
 CYCLE:   390 TIME:   0.172 TIME LEFT:  2.00D  GRAD.:     4.866 HEAT: -48.51183
 CYCLE:   391 TIME:   0.164 TIME LEFT:  2.00D  GRAD.:     3.456 HEAT: -48.52106
 CYCLE:   392 TIME:   0.176 TIME LEFT:  2.00D  GRAD.:     4.085 HEAT: -48.53857
 CYCLE:   393 TIME:   0.168 TIME LEFT:  2.00D  GRAD.:     6.706 HEAT: -48.55763
 CYCLE:   394 TIME:   0.145 TIME LEFT:  2.00D  GRAD.:     4.022 HEAT: -48.58004
 CYCLE:   395 TIME:   0.195 TIME LEFT:  2.00D  GRAD.:     4.408 HEAT: -48.59894
 CYCLE:   396 TIME:   0.191 TIME LEFT:  2.00D  GRAD.:     4.783 HEAT: -48.61190
 CYCLE:   397 TIME:   0.141 TIME LEFT:  2.00D  GRAD.:     3.679 HEAT: -48.62361
 CYCLE:   398 TIME:   0.148 TIME LEFT:  2.00D  GRAD.:     3.041 HEAT: -48.63737
 CYCLE:   399 TIME:   0.184 TIME LEFT:  2.00D  GRAD.:     5.461 HEAT: -48.64965
 CYCLE:   400 TIME:   0.168 TIME LEFT:  2.00D  GRAD.:     3.892 HEAT: -48.66276
 CYCLE:   401 TIME:   0.152 TIME LEFT:  2.00D  GRAD.:     3.032 HEAT: -48.67316
 CYCLE:   402 TIME:   0.184 TIME LEFT:  2.00D  GRAD.:     4.143 HEAT: -48.68637
 CYCLE:   403 TIME:   0.148 TIME LEFT:  2.00D  GRAD.:     7.619 HEAT: -48.69403
 CYCLE:   404 TIME:   0.168 TIME LEFT:  2.00D  GRAD.:     3.375 HEAT: -48.70593
 CYCLE:   405 TIME:   0.184 TIME LEFT:  2.00D  GRAD.:     3.270 HEAT: -48.71580
 CYCLE:   406 TIME:   0.156 TIME LEFT:  2.00D  GRAD.:     3.516 HEAT: -48.72437
 CYCLE:   407 TIME:   0.156 TIME LEFT:  2.00D  GRAD.:     8.108 HEAT: -48.74219
 CYCLE:   408 TIME:   0.141 TIME LEFT:  2.00D  GRAD.:     4.297 HEAT: -48.76178
 CYCLE:   409 TIME:   0.160 TIME LEFT:  2.00D  GRAD.:     3.259 HEAT: -48.77113
 CYCLE:   410 TIME:   0.188 TIME LEFT:  2.00D  GRAD.:     4.594 HEAT: -48.78723
 CYCLE:   411 TIME:   0.180 TIME LEFT:  2.00D  GRAD.:     3.734 HEAT: -48.80467
 CYCLE:   412 TIME:   0.180 TIME LEFT:  2.00D  GRAD.:     4.829 HEAT: -48.82446
 CYCLE:   413 TIME:   0.160 TIME LEFT:  2.00D  GRAD.:     7.374 HEAT: -48.83169
 CYCLE:   414 TIME:   0.152 TIME LEFT:  2.00D  GRAD.:     3.107 HEAT: -48.84146
 CYCLE:   415 TIME:   0.188 TIME LEFT:  2.00D  GRAD.:     3.726 HEAT: -48.85068
 CYCLE:   416 TIME:   0.164 TIME LEFT:  2.00D  GRAD.:     3.483 HEAT: -48.85932
 CYCLE:   417 TIME:   0.188 TIME LEFT:  2.00D  GRAD.:     6.698 HEAT: -48.87543
 CYCLE:   418 TIME:   0.176 TIME LEFT:  2.00D  GRAD.:     3.491 HEAT: -48.88834
 CYCLE:   419 TIME:   0.172 TIME LEFT:  2.00D  GRAD.:     2.883 HEAT: -48.89417
 CYCLE:   420 TIME:   0.230 TIME LEFT:  2.00D  GRAD.:     5.825 HEAT: -48.90446
 CYCLE:   421 TIME:   0.105 TIME LEFT:  2.00D  GRAD.:     7.425 HEAT: -48.91343
 CYCLE:   422 TIME:   0.129 TIME LEFT:  2.00D  GRAD.:     2.687 HEAT: -48.92682
 CYCLE:   423 TIME:   0.133 TIME LEFT:  2.00D  GRAD.:     2.274 HEAT: -48.93456
 CYCLE:   424 TIME:   0.160 TIME LEFT:  2.00D  GRAD.:     3.860 HEAT: -48.94837
 CYCLE:   425 TIME:   0.164 TIME LEFT:  2.00D  GRAD.:    15.372 HEAT: -48.93606
 CYCLE:   426 TIME:   0.141 TIME LEFT:  2.00D  GRAD.:     3.978 HEAT: -48.96514
 CYCLE:   427 TIME:   0.156 TIME LEFT:  2.00D  GRAD.:     2.778 HEAT: -48.97199
 CYCLE:   428 TIME:   0.105 TIME LEFT:  2.00D  GRAD.:     3.020 HEAT: -48.98420
 CYCLE:   429 TIME:   0.152 TIME LEFT:  2.00D  GRAD.:     5.412 HEAT: -48.99205
 CYCLE:   430 TIME:   0.137 TIME LEFT:  2.00D  GRAD.:     2.696 HEAT: -49.00122
 CYCLE:   431 TIME:   0.121 TIME LEFT:  2.00D  GRAD.:     2.565 HEAT: -49.00943
 CYCLE:   432 TIME:   0.133 TIME LEFT:  2.00D  GRAD.:     3.989 HEAT: -49.01975
 CYCLE:   433 TIME:   0.152 TIME LEFT:  2.00D  GRAD.:     7.297 HEAT: -49.02277
 CYCLE:   434 TIME:   0.129 TIME LEFT:  2.00D  GRAD.:     2.979 HEAT: -49.03316
 CYCLE:   435 TIME:   0.125 TIME LEFT:  2.00D  GRAD.:     2.872 HEAT: -49.04079
 CYCLE:   436 TIME:   0.145 TIME LEFT:  2.00D  GRAD.:     3.372 HEAT: -49.04847
 CYCLE:   437 TIME:   0.121 TIME LEFT:  2.00D  GRAD.:     7.602 HEAT: -49.05673
 CYCLE:   438 TIME:   0.152 TIME LEFT:  2.00D  GRAD.:     3.142 HEAT: -49.06890
 CYCLE:   439 TIME:   0.141 TIME LEFT:  2.00D  GRAD.:     2.550 HEAT: -49.07434
 CYCLE:   440 TIME:   0.148 TIME LEFT:  2.00D  GRAD.:     3.156 HEAT: -49.07974
 CYCLE:   441 TIME:   0.148 TIME LEFT:  2.00D  GRAD.:     4.913 HEAT: -49.08868
 CYCLE:   442 TIME:   0.133 TIME LEFT:  2.00D  GRAD.:     3.916 HEAT: -49.09724
 CYCLE:   443 TIME:   0.141 TIME LEFT:  2.00D  GRAD.:     2.549 HEAT: -49.10497
 CYCLE:   444 TIME:   0.141 TIME LEFT:  2.00D  GRAD.:     3.690 HEAT: -49.11321
 CYCLE:   445 TIME:   0.188 TIME LEFT:  2.00D  GRAD.:     4.013 HEAT: -49.11900
 CYCLE:   446 TIME:   0.160 TIME LEFT:  2.00D  GRAD.:     3.786 HEAT: -49.12786
 CYCLE:   447 TIME:   0.180 TIME LEFT:  2.00D  GRAD.:     6.746 HEAT: -49.13548
 CYCLE:   448 TIME:   0.148 TIME LEFT:  2.00D  GRAD.:     3.044 HEAT: -49.14590
 CYCLE:   449 TIME:   0.141 TIME LEFT:  2.00D  GRAD.:     2.906 HEAT: -49.15205
 CYCLE:   450 TIME:   0.121 TIME LEFT:  2.00D  GRAD.:     3.129 HEAT: -49.15973
 CYCLE:   451 TIME:   0.176 TIME LEFT:  2.00D  GRAD.:     6.515 HEAT: -49.16664
 CYCLE:   452 TIME:   0.121 TIME LEFT:  2.00D  GRAD.:     2.858 HEAT: -49.17578
 CYCLE:   453 TIME:   0.121 TIME LEFT:  2.00D  GRAD.:     2.355 HEAT: -49.18005
 CYCLE:   454 TIME:   0.141 TIME LEFT:  2.00D  GRAD.:     2.983 HEAT: -49.18725
 CYCLE:   455 TIME:   0.133 TIME LEFT:  2.00D  GRAD.:     4.081 HEAT: -49.19445
 CYCLE:   456 TIME:   0.148 TIME LEFT:  2.00D  GRAD.:     3.325 HEAT: -49.20108
 CYCLE:   457 TIME:   0.137 TIME LEFT:  2.00D  GRAD.:     2.068 HEAT: -49.20589
 CYCLE:   458 TIME:   0.109 TIME LEFT:  2.00D  GRAD.:     2.343 HEAT: -49.21058
 CYCLE:   459 TIME:   0.125 TIME LEFT:  2.00D  GRAD.:     3.183 HEAT: -49.21629
 CYCLE:   460 TIME:   0.152 TIME LEFT:  2.00D  GRAD.:     2.684 HEAT: -49.22401
 CYCLE:   461 TIME:   0.145 TIME LEFT:  2.00D  GRAD.:     2.243 HEAT: -49.22952
 CYCLE:   462 TIME:   0.141 TIME LEFT:  2.00D  GRAD.:     2.382 HEAT: -49.23560
 CYCLE:   463 TIME:   0.141 TIME LEFT:  2.00D  GRAD.:     4.247 HEAT: -49.24399
 CYCLE:   464 TIME:   0.117 TIME LEFT:  2.00D  GRAD.:     3.632 HEAT: -49.25065
 CYCLE:   465 TIME:   0.156 TIME LEFT:  2.00D  GRAD.:     2.303 HEAT: -49.25660
 CYCLE:   466 TIME:   0.137 TIME LEFT:  2.00D  GRAD.:     3.619 HEAT: -49.26345
 CYCLE:   467 TIME:   0.117 TIME LEFT:  2.00D  GRAD.:     3.931 HEAT: -49.26800
 CYCLE:   468 TIME:   0.141 TIME LEFT:  2.00D  GRAD.:     2.366 HEAT: -49.27393
 CYCLE:   469 TIME:   0.137 TIME LEFT:  2.00D  GRAD.:     1.981 HEAT: -49.28036
 CYCLE:   470 TIME:   0.160 TIME LEFT:  2.00D  GRAD.:     3.557 HEAT: -49.28496
 CYCLE:   471 TIME:   0.137 TIME LEFT:  2.00D  GRAD.:     1.863 HEAT: -49.28884
 CYCLE:   472 TIME:   0.160 TIME LEFT:  2.00D  GRAD.:     1.837 HEAT: -49.29297
 CYCLE:   473 TIME:   0.156 TIME LEFT:  2.00D  GRAD.:     3.314 HEAT: -49.29810
 CYCLE:   474 TIME:   0.113 TIME LEFT:  2.00D  GRAD.:     3.466 HEAT: -49.30260
 CYCLE:   475 TIME:   0.125 TIME LEFT:  2.00D  GRAD.:     1.683 HEAT: -49.30848
 CYCLE:   476 TIME:   0.156 TIME LEFT:  2.00D  GRAD.:     2.054 HEAT: -49.31138
 CYCLE:   477 TIME:   0.141 TIME LEFT:  2.00D  GRAD.:     2.777 HEAT: -49.31515
 CYCLE:   478 TIME:   0.129 TIME LEFT:  2.00D  GRAD.:     2.108 HEAT: -49.31955
 CYCLE:   479 TIME:   0.172 TIME LEFT:  2.00D  GRAD.:     1.846 HEAT: -49.32386
 CYCLE:   480 TIME:   0.172 TIME LEFT:  2.00D  GRAD.:     2.530 HEAT: -49.32769
 CYCLE:   481 TIME:   0.117 TIME LEFT:  2.00D  GRAD.:     2.304 HEAT: -49.33034
 CYCLE:   482 TIME:   0.160 TIME LEFT:  2.00D  GRAD.:     2.334 HEAT: -49.33310
 CYCLE:   483 TIME:   0.156 TIME LEFT:  2.00D  GRAD.:     2.209 HEAT: -49.33673
 CYCLE:   484 TIME:   0.152 TIME LEFT:  2.00D  GRAD.:     2.051 HEAT: -49.34041
 CYCLE:   485 TIME:   0.172 TIME LEFT:  2.00D  GRAD.:     1.803 HEAT: -49.34476
 CYCLE:   486 TIME:   0.180 TIME LEFT:  2.00D  GRAD.:     2.877 HEAT: -49.34939
 CYCLE:   487 TIME:   0.180 TIME LEFT:  2.00D  GRAD.:     2.295 HEAT: -49.35274
 CYCLE:   488 TIME:   0.172 TIME LEFT:  2.00D  GRAD.:     2.972 HEAT: -49.35610
 CYCLE:   489 TIME:   0.152 TIME LEFT:  2.00D  GRAD.:     2.002 HEAT: -49.35965
 CYCLE:   490 TIME:   0.176 TIME LEFT:  2.00D  GRAD.:     1.798 HEAT: -49.36293
 CYCLE:   491 TIME:   0.168 TIME LEFT:  2.00D  GRAD.:     2.487 HEAT: -49.36631
 CYCLE:   492 TIME:   0.211 TIME LEFT:  2.00D  GRAD.:     2.222 HEAT: -49.36998
 CYCLE:   493 TIME:   0.129 TIME LEFT:  2.00D  GRAD.:     1.824 HEAT: -49.37257
 CYCLE:   494 TIME:   0.148 TIME LEFT:  2.00D  GRAD.:     1.523 HEAT: -49.37471
 CYCLE:   495 TIME:   0.168 TIME LEFT:  2.00D  GRAD.:     1.816 HEAT: -49.37684
 CYCLE:   496 TIME:   0.145 TIME LEFT:  2.00D  GRAD.:     1.927 HEAT: -49.37963
 CYCLE:   497 TIME:   0.176 TIME LEFT:  2.00D  GRAD.:     2.024 HEAT: -49.38204
 CYCLE:   498 TIME:   0.129 TIME LEFT:  2.00D  GRAD.:     1.569 HEAT: -49.38404
 CYCLE:   499 TIME:   0.148 TIME LEFT:  2.00D  GRAD.:     1.554 HEAT: -49.38619
 CYCLE:   500 TIME:   0.172 TIME LEFT:  2.00D  GRAD.:     2.137 HEAT: -49.38827
 CYCLE:   501 TIME:   0.133 TIME LEFT:  2.00D  GRAD.:     1.632 HEAT: -49.39034
 CYCLE:   502 TIME:   0.129 TIME LEFT:  2.00D  GRAD.:     1.403 HEAT: -49.39254
 CYCLE:   503 TIME:   0.164 TIME LEFT:  2.00D  GRAD.:     1.688 HEAT: -49.39448
 CYCLE:   504 TIME:   0.195 TIME LEFT:  2.00D  GRAD.:     2.473 HEAT: -49.39614
 CYCLE:   505 TIME:   0.172 TIME LEFT:  2.00D  GRAD.:     1.400 HEAT: -49.39794
 CYCLE:   506 TIME:   0.176 TIME LEFT:  2.00D  GRAD.:     1.197 HEAT: -49.39924
 CYCLE:   507 TIME:   0.188 TIME LEFT:  2.00D  GRAD.:     1.523 HEAT: -49.40077
 CYCLE:   508 TIME:   0.188 TIME LEFT:  2.00D  GRAD.:     2.218 HEAT: -49.40262
 CYCLE:   509 TIME:   0.191 TIME LEFT:  2.00D  GRAD.:     1.633 HEAT: -49.40484
 CYCLE:   510 TIME:   0.152 TIME LEFT:  2.00D  GRAD.:     1.401 HEAT: -49.40689
 CYCLE:   511 TIME:   0.148 TIME LEFT:  2.00D  GRAD.:     1.736 HEAT: -49.40931
 CYCLE:   512 TIME:   0.191 TIME LEFT:  2.00D  GRAD.:     2.945 HEAT: -49.41141
 CYCLE:   513 TIME:   0.145 TIME LEFT:  2.00D  GRAD.:     1.504 HEAT: -49.41395
 CYCLE:   514 TIME:   0.160 TIME LEFT:  2.00D  GRAD.:     1.427 HEAT: -49.41555
 CYCLE:   515 TIME:   0.121 TIME LEFT:  2.00D  GRAD.:     1.839 HEAT: -49.41725
 CYCLE:   516 TIME:   0.160 TIME LEFT:  2.00D  GRAD.:     1.803 HEAT: -49.42013
 CYCLE:   517 TIME:   0.172 TIME LEFT:  2.00D  GRAD.:     3.647 HEAT: -49.42118
 CYCLE:   518 TIME:   0.191 TIME LEFT:  2.00D  GRAD.:     1.298 HEAT: -49.42377
 CYCLE:   519 TIME:   0.164 TIME LEFT:  2.00D  GRAD.:     1.264 HEAT: -49.42495
 CYCLE:   520 TIME:   0.215 TIME LEFT:  2.00D  GRAD.:     1.502 HEAT: -49.42702
 CYCLE:   521 TIME:   0.172 TIME LEFT:  2.00D  GRAD.:     3.472 HEAT: -49.42822
 CYCLE:   522 TIME:   0.145 TIME LEFT:  2.00D  GRAD.:     1.450 HEAT: -49.43031
 CYCLE:   523 TIME:   0.137 TIME LEFT:  2.00D  GRAD.:     1.067 HEAT: -49.43168
 CYCLE:   524 TIME:   0.172 TIME LEFT:  2.00D  GRAD.:     1.407 HEAT: -49.43288
 CYCLE:   525 TIME:   0.160 TIME LEFT:  2.00D  GRAD.:     1.833 HEAT: -49.43441
 CYCLE:   526 TIME:   0.168 TIME LEFT:  2.00D  GRAD.:     3.137 HEAT: -49.43476
 CYCLE:   527 TIME:   0.168 TIME LEFT:  2.00D  GRAD.:     0.941 HEAT: -49.43677

 -------------------------------------------------------------------------------
 PM7
 imine.xyz



     HERBERTS TEST WAS SATISFIED IN BFGS                      
     SCF FIELD WAS ACHIEVED                                   


                              PM7 CALCULATION
                                                       MOPAC2016 (Version: 21.051W)
                                                       Thu May 20 15:25:39 2021
                                                       No. of days remaining = 276




          FINAL HEAT OF FORMATION =        -49.43680 KCAL/MOL =    -206.84357 KJ/MOL


          TOTAL ENERGY            =      -8348.17700 EV
          ELECTRONIC ENERGY       =    -108107.70903 EV  POINT GROUP:     C1  
          CORE-CORE REPULSION     =      99759.53203 EV
          COSMO AREA              =        516.84 SQUARE ANGSTROMS
          COSMO VOLUME            =        818.77 CUBIC ANGSTROMS

          GRADIENT NORM           =          0.94078 = 0.09755 PER ATOM
          IONIZATION POTENTIAL    =          8.048540 EV
          ALPHA SOMO LUMO (EV)    =         -8.049 -1.944
          BETA  SOMO LUMO (EV)    =         -8.965 -1.944
          NO. OF ALPHA ELECTRONS  =        133
          NO. OF BETA  ELECTRONS  =        132
          MOLECULAR WEIGHT        =        692.7901

          MOLECULAR DIMENSIONS (Angstroms)

            Atom       Atom       Distance
            O    90    H    45    13.07964
            H    38    H    71    11.43492
            H    68    H    42     8.42998


          SCF CALCULATIONS        =        528
 
          WALL-CLOCK TIME         =  1 MINUTE AND 26.902 SECONDS
          COMPUTATION TIME        =  5 MINUTES AND 43.031 SECONDS




   ATOM   CHEMICAL          X               Y               Z
  NUMBER   SYMBOL      (ANGSTROMS)     (ANGSTROMS)     (ANGSTROMS)
 
     1       C          1.93432569  *  -4.06121126  *  -2.59153944  *
     2       C          0.93551203  *  -2.97315707  *  -3.03901176  *
     3       C         -1.35688891  *  -5.50305914  *   0.87433000  *
     4       C         -0.11900009  *  -5.32263169  *   0.41540836  *
     5       C          1.37541477  *  -1.64027825  *   2.36557742  *
     6       C         -1.00626140  *  -2.00456039  *   2.18978770  *
     7       C         -0.96874541  *  -2.41286213  *   3.55165091  *
     8       C          1.31457622  *  -2.07762900  *   3.71504305  *
     9       C         -2.25556403  *  -2.02470064  *   1.51590165  *
    10       C         -3.38072728  *  -2.44650960  *   2.18420571  *
    11       C         -3.35386502  *  -2.83186271  *   3.56163491  *
    12       O         -4.63219593  *  -2.54028489  *   1.68027508  *
    13       N          0.18489551  *  -2.44741914  *   4.28940826  *
    14       C         -4.78814202  *  -2.34666125  *   0.27921211  *
    15       C          0.30338949  *  -1.06843621  *   0.18675090  *
    16       C          1.09551168  *  -1.95133191  *  -0.83494978  *
    17       C         -0.68531384  *  -3.58067226  *  -1.32770323  *
    18       C          1.90964945  *  -3.13264813  *  -0.25977055  *
    19       C          1.66504965  *  -4.39209767  *  -1.11252759  *
    20       C          0.18249869  *  -4.81232283  *  -0.96113812  *
    21       C          0.22915666  *  -1.60346354  *   1.59993598  *
    22       N          0.14099399  *  -2.46650530  *  -1.87713615  *
    23       C         -2.16742300  *  -2.81387128  *   4.22745148  *
    24       N          0.96126584  *   0.27415348  *   0.19284151  *
    25       C          0.05053696  *   1.33526118  *   0.32947030  *
    26       C         -0.73850101  *   1.75063777  *  -0.85109290  *
    27       C         -2.23616553  *   1.64368211  *  -0.53975581  *
    28       C         -2.60014911  *   2.31403249  *   0.80203306  *
    29       C         -1.73393503  *   1.76052849  *   1.94626510  *
    30       C         -0.23931424  *   1.98028865  *   1.63460981  *
    31       C         -4.07366130  *   2.07945164  *   1.00129907  *
    32       C         -4.98008380  *   3.03494764  *   0.53207791  *
    33       C         -6.35017865  *   2.80318522  *   0.61813061  *
    34       C         -6.82592140  *   1.61449296  *   1.16931590  *
    35       C         -5.92581846  *   0.66296766  *   1.64305739  *
    36       C         -4.55504354  *   0.89585951  *   1.56107491  *
    37       H          1.83748261  *  -4.96472417  *  -3.21635251  *
    38       H          2.97467758  *  -3.71608380  *  -2.72101780  *
    39       H          0.23014248  *  -3.36715195  *  -3.80012879  *
    40       H          1.46035849  *  -2.11468817  *  -3.50849035  *
    41       H         -1.57266823  *  -5.88344370  *   1.86160639  *
    42       H         -2.25160424  *  -5.28302477  *   0.31238144  *
    43       H          0.75178750  *  -5.56151596  *   1.02618142  *
    44       H          2.34192010  *  -1.34835486  *   1.96003128  *
    45       H          2.22065347  *  -2.11830919  *   4.33081177  *
    46       H         -2.31128670  *  -1.71385354  *   0.47392141  *
    47       H         -4.28683801  *  -3.13151345  *   4.03648444  *
    48       H         -5.86470314  *  -2.50767750  *   0.14013532  *
    49       H         -4.50648711  *  -1.32726160  *  -0.00489753  *
    50       H         -4.20911205  *  -3.09008939  *  -0.28196859  *
    51       H         -0.73964127  *  -0.92843220  *  -0.22333063  *
    52       H          1.80490219  *  -1.25525286  *  -1.36992964  *
    53       H         -1.46412662  *  -3.84542390  *  -2.07481910  *
    54       H         -1.24056228  *  -3.20663351  *  -0.43839300  *
    55       H          1.63257076  *  -3.36550655  *   0.78456891  *
    56       H          2.98248067  *  -2.87864822  *  -0.23725141  *
    57       H          2.33206168  *  -5.21458662  *  -0.77802959  *
    58       H         -0.03063057  *  -5.63828500  *  -1.68546728  *
    59       H         -2.08605943  *  -3.09995885  *   5.27880461  *
    60       H         -0.47256701  *   2.79383328  *  -1.12443617  *
    61       H         -0.48911424  *   1.14144027  *  -1.74767038  *
    62       H         -2.53157225  *   0.57716433  *  -0.50711017  *
    63       H         -2.82217691  *   2.11341041  *  -1.34969770  *
    64       H         -2.39616538  *   3.41112436  *   0.72316611  *
    65       H         -1.91805312  *   0.67771584  *   2.09002246  *
    66       H         -2.00478925  *   2.24748313  *   2.89953316  *
    67       H          0.38081721  *   1.57608303  *   2.45616730  *
    68       H         -0.01268113  *   3.06498216  *   1.59283830  *
    69       H         -4.61596973  *   3.96404576  *   0.09922138  *
    70       H         -7.05203548  *   3.55182303  *   0.25434257  *
    71       H         -7.89663315  *   1.43107157  *   1.22918499  *
    72       H         -6.28942319  *  -0.26896795  *   2.07599935  *
    73       H         -3.86138014  *   0.14332080  *   1.93716529  *
    74       C         -2.76442721  *  -1.01067890  *  -2.54034689  *
    75       O         -1.52582435  *  -0.71032829  *  -2.82441752  *
    76       O         -3.09501646  *  -2.02732134  *  -1.95966067  *
    77       C         -3.73884567  *   0.04288878  *  -2.93990394  *
    78       C         -3.30953240  *   1.17987496  *  -3.62223404  *
    79       C         -5.07091091  *  -0.10371045  *  -2.55835230  *
    80       C         -4.23446666  *   2.19535477  *  -3.88902514  *
    81       H         -2.25477815  *   1.27889975  *  -3.93080985  *
    82       C         -5.97332273  *   0.92829317  *  -2.83580858  *
    83       H         -5.40344586  *  -1.01745205  *  -2.03975709  *
    84       C         -5.57012064  *   2.09118624  *  -3.49410038  *
    85       H         -6.28598492  *   2.90555167  *  -3.69596763  *
    86       N         -7.36226621  *   0.79051194  *  -2.41646224  *
    87       O         -7.69816322  *  -0.25953110  *  -1.89632218  *
    88       O         -8.11383707  *   1.72892072  *  -2.61404327  *
    89       N         -3.79195362  *   3.39544044  *  -4.58665675  *
    90       O         -4.61795870  *   4.26254432  *  -4.81222548  *
    91       O         -2.61841487  *   3.46649013  *  -4.90929326  *
    92       H         -0.75851044  *  -1.43715502  *  -2.38824346  *
    93       H          1.72370850  *   0.31507895  *   0.87037214  *

                             CARTESIAN COORDINATES

   1    C        1.934325688    -4.061211262    -2.591539440
   2    C        0.935512032    -2.973157069    -3.039011758
   3    C       -1.356888911    -5.503059139     0.874330001
   4    C       -0.119000090    -5.322631687     0.415408357
   5    C        1.375414771    -1.640278246     2.365577419
   6    C       -1.006261404    -2.004560394     2.189787701
   7    C       -0.968745413    -2.412862132     3.551650915
   8    C        1.314576224    -2.077629003     3.715043051
   9    C       -2.255564032    -2.024700640     1.515901650
  10    C       -3.380727278    -2.446509598     2.184205709
  11    C       -3.353865024    -2.831862711     3.561634909
  12    O       -4.632195927    -2.540284889     1.680275082
  13    N        0.184895506    -2.447419136     4.289408258
  14    C       -4.788142020    -2.346661247     0.279212109
  15    C        0.303389486    -1.068436207     0.186750901
  16    C        1.095511682    -1.951331910    -0.834949780
  17    C       -0.685313844    -3.580672262    -1.327703234
  18    C        1.909649446    -3.132648125    -0.259770550
  19    C        1.665049650    -4.392097666    -1.112527595
  20    C        0.182498694    -4.812322825    -0.961138119
  21    C        0.229156657    -1.603463542     1.599935984
  22    N        0.140993987    -2.466505300    -1.877136152
  23    C       -2.167422997    -2.813871276     4.227451480
  24    N        0.961265840     0.274153484     0.192841509
  25    C        0.050536963     1.335261181     0.329470303
  26    C       -0.738501009     1.750637773    -0.851092898
  27    C       -2.236165527     1.643682111    -0.539755813
  28    C       -2.600149106     2.314032488     0.802033061
  29    C       -1.733935025     1.760528489     1.946265096
  30    C       -0.239314241     1.980288652     1.634609813
  31    C       -4.073661302     2.079451642     1.001299070
  32    C       -4.980083800     3.034947641     0.532077906
  33    C       -6.350178650     2.803185217     0.618130607
  34    C       -6.825921399     1.614492961     1.169315901
  35    C       -5.925818464     0.662967657     1.643057394
  36    C       -4.555043543     0.895859513     1.561074910
  37    H        1.837482614    -4.964724168    -3.216352510
  38    H        2.974677582    -3.716083796    -2.721017801
  39    H        0.230142476    -3.367151946    -3.800128791
  40    H        1.460358493    -2.114688167    -3.508490351
  41    H       -1.572668232    -5.883443702     1.861606391
  42    H       -2.251604237    -5.283024772     0.312381445
  43    H        0.751787498    -5.561515956     1.026181415
  44    H        2.341920102    -1.348354861     1.960031280
  45    H        2.220653468    -2.118309193     4.330811770
  46    H       -2.311286697    -1.713853539     0.473921410
  47    H       -4.286838012    -3.131513445     4.036484443
  48    H       -5.864703142    -2.507677496     0.140135324
  49    H       -4.506487113    -1.327261599    -0.004897533
  50    H       -4.209112050    -3.090089391    -0.281968587
  51    H       -0.739641273    -0.928432203    -0.223330635
  52    H        1.804902185    -1.255252865    -1.369929642
  53    H       -1.464126619    -3.845423903    -2.074819103
  54    H       -1.240562278    -3.206633511    -0.438392999
  55    H        1.632570762    -3.365506550     0.784568910
  56    H        2.982480669    -2.878648221    -0.237251407
  57    H        2.332061682    -5.214586624    -0.778029588
  58    H       -0.030630572    -5.638285001    -1.685467283
  59    H       -2.086059430    -3.099958851     5.278804606
  60    H       -0.472567008     2.793833278    -1.124436171
  61    H       -0.489114235     1.141440268    -1.747670385
  62    H       -2.531572248     0.577164331    -0.507110173
  63    H       -2.822176907     2.113410411    -1.349697704
  64    H       -2.396165378     3.411124359     0.723166108
  65    H       -1.918053119     0.677715840     2.090022461
  66    H       -2.004789245     2.247483133     2.899533157
  67    H        0.380817211     1.576083032     2.456167298
  68    H       -0.012681127     3.064982157     1.592838296
  69    H       -4.615969730     3.964045762     0.099221377
  70    H       -7.052035477     3.551823028     0.254342568
  71    H       -7.896633155     1.431071570     1.229184992
  72    H       -6.289423192    -0.268967952     2.075999351
  73    H       -3.861380141     0.143320803     1.937165286
  74    C       -2.764427206    -1.010678900    -2.540346891
  75    O       -1.525824351    -0.710328295    -2.824417518
  76    O       -3.095016459    -2.027321338    -1.959660667
  77    C       -3.738845667     0.042888778    -2.939903935
  78    C       -3.309532403     1.179874959    -3.622234042
  79    C       -5.070910908    -0.103710447    -2.558352300
  80    C       -4.234466662     2.195354773    -3.889025142
  81    H       -2.254778151     1.278899749    -3.930809854
  82    C       -5.973322735     0.928293166    -2.835808582
  83    H       -5.403445862    -1.017452047    -2.039757086
  84    C       -5.570120643     2.091186242    -3.494100381
  85    H       -6.285984923     2.905551672    -3.695967630
  86    N       -7.362266209     0.790511943    -2.416462237
  87    O       -7.698163217    -0.259531098    -1.896322184
  88    O       -8.113837067     1.728920724    -2.614043267
  89    N       -3.791953618     3.395440436    -4.586656754
  90    O       -4.617958696     4.262544319    -4.812225481
  91    O       -2.618414868     3.466490129    -4.909293259
  92    H       -0.758510435    -1.437155018    -2.388243463
  93    H        1.723708498     0.315078951     0.870372142


           Empirical Formula: C39 H42 N5 O7  =    93 atoms



      MOLECULAR POINT GROUP   :   C1  


          ALPHA EIGENVALUES  
 -37.66334 -37.59201 -36.82664 -35.97568 -35.84372 -32.35374 -31.22927 -31.14187
 -31.06540 -31.01641 -30.81773 -30.20612 -29.92538 -29.73705 -29.45849 -29.00519
 -28.31701 -28.06340 -27.90096 -27.07255 -26.55087 -26.37887 -26.26281 -25.78528
 -25.70463 -25.55284 -25.45770 -25.10934 -24.74730 -24.38509 -23.75610 -23.54113
 -22.58712 -22.29286 -22.23428 -21.98696 -21.72668 -21.56355 -21.39074 -21.08924
 -20.82589 -20.67407 -19.94910 -19.58194 -19.45821 -19.27646 -19.10129 -18.67847
 -18.41734 -18.29210 -17.98807 -17.90458 -17.85913 -17.83128 -17.67640 -17.61687
 -17.52218 -17.49756 -17.47036 -17.37188 -17.21187 -16.76304 -16.58214 -16.46623
 -16.15451 -16.01523 -15.91455 -15.87789 -15.78354 -15.53239 -15.45145 -15.31020
 -15.24698 -15.09809 -15.01264 -14.89833 -14.79161 -14.66467 -14.58607 -14.55164
 -14.53303 -14.36652 -14.29204 -14.23552 -14.13016 -14.09814 -14.07440 -14.02595
 -14.00193 -13.80752 -13.67426 -13.57382 -13.35748 -13.29259 -13.20218 -13.15491
 -13.05109 -12.91292 -12.75223 -12.68722 -12.56620 -12.40841 -12.32486 -12.17887
 -12.13443 -11.99665 -11.86797 -11.79700 -11.67914 -11.64866 -11.64222 -11.63062
 -11.61988 -11.59515 -11.58198 -11.54399 -11.46503 -11.45902 -11.40144 -11.35592
 -11.26502 -11.21734 -11.17911 -11.06024 -10.60551 -10.42793 -10.19873  -9.93531
  -9.78594  -9.75332  -9.45262  -8.96899  -8.04854  -1.94362  -1.79505  -0.99746
  -0.47346  -0.46986   0.19399   0.21711   0.30887   0.31777   0.34220   0.44764
   0.85146   0.87520   1.39772   1.49030   1.59960   1.70594   2.07429   2.47905
   2.61976   2.65549   2.68475   2.79222   2.88738   3.00506   3.03985   3.05943
   3.08716   3.20276   3.27836   3.36384   3.43126   3.50434   3.55152   3.59064
   3.64094   3.75158   3.77017   3.83148   3.89814   3.93491   3.97427   3.98129
   4.06188   4.09485   4.14774   4.16580   4.17860   4.26930   4.27566   4.31146
   4.47395   4.52702   4.54891   4.56082   4.62428   4.63906   4.66762   4.67657
   4.70625   4.76597   4.78599   4.81618   4.90764   4.92280   4.98269   4.99569
   5.03079   5.05920   5.16754   5.18437   5.26357   5.27196   5.32319   5.35556
   5.36281   5.41882   5.43603   5.49071   5.51033   5.53212   5.54972   5.55577
   5.56777   5.63453   5.65671   5.69384   5.78293   5.80658   5.84663   5.85611
   5.89307   5.89766   5.96997   5.98502   6.00272   6.02778   6.07979   6.11657
   6.17316   6.19160   6.25726   6.27674   6.30794   6.33718   6.34878   6.41713
   6.43048   6.48967   6.50147   6.50416   6.70718   6.81861


           BETA EIGENVALUES 
 -37.66334 -37.59201 -36.82370 -35.95053 -35.81683 -32.35357 -31.22601 -31.13913
 -31.06505 -31.01631 -30.80615 -30.20019 -29.92059 -29.70670 -29.45669 -28.99780
 -28.31694 -28.06306 -27.90075 -27.05737 -26.51080 -26.36867 -26.23445 -25.78162
 -25.70097 -25.55242 -25.45595 -25.10826 -24.73925 -24.35047 -23.71551 -23.53999
 -22.58448 -22.29067 -22.23008 -21.98216 -21.72605 -21.54016 -21.38250 -21.04001
 -20.82290 -20.63712 -19.92456 -19.55144 -19.42412 -19.27459 -19.06133 -18.67841
 -18.40670 -18.25591 -17.98319 -17.90220 -17.85673 -17.83012 -17.67460 -17.60642
 -17.51871 -17.49422 -17.46756 -17.33133 -17.18370 -16.76248 -16.53638 -16.45733
 -16.14585 -16.01331 -15.90997 -15.85268 -15.76279 -15.50528 -15.44686 -15.28971
 -15.22062 -15.08596 -15.00319 -14.87859 -14.77407 -14.64387 -14.58096 -14.53139
 -14.44864 -14.35305 -14.28379 -14.19450 -14.12629 -14.08457 -14.04117 -14.01197
 -13.97419 -13.77767 -13.67060 -13.57124 -13.33976 -13.26153 -13.17643 -13.10581
 -13.02516 -12.88176 -12.74508 -12.68002 -12.53317 -12.39987 -12.31292 -12.17499
 -12.09492 -11.99151 -11.85735 -11.77403 -11.67914 -11.64843 -11.64215 -11.62647
 -11.61848 -11.59374 -11.55354 -11.52997 -11.45842 -11.44416 -11.40109 -11.34348
 -11.24411 -11.20402 -11.17241 -11.03841 -10.60330 -10.40817 -10.19260  -9.86335
  -9.75463  -9.57328  -9.44885  -8.96513  -1.94360  -1.79503  -1.00836  -0.46987
  -0.46928   0.19398   0.21710   0.30891   0.31772   0.34220   0.40296   0.82217
   0.85178   0.87531   1.41018   1.49637   1.60934   1.71120   2.07979   2.49967
   2.62050   2.68013   2.78714   2.79431   2.89579   3.03909   3.04491   3.07296
   3.09682   3.20503   3.27862   3.37675   3.43355   3.51069   3.56969   3.63734
   3.66162   3.75611   3.77033   3.83183   3.90373   3.95541   3.97429   3.98636
   4.06241   4.09876   4.16754   4.17851   4.22541   4.28449   4.32284   4.37820
   4.47445   4.54017   4.56075   4.62721   4.64220   4.64617   4.67413   4.71041
   4.75678   4.77893   4.81106   4.91118   4.92188   4.97962   4.98316   4.99592
   5.05108   5.09231   5.18242   5.26226   5.26802   5.30878   5.35383   5.36347
   5.40695   5.42007   5.43830   5.50329   5.51618   5.53662   5.55834   5.56329
   5.60813   5.63574   5.66201   5.71629   5.78461   5.81528   5.84852   5.87715
   5.89696   5.92148   5.96961   5.99538   6.00687   6.04139   6.07990   6.11844
   6.17560   6.19406   6.25878   6.27832   6.30834   6.34013   6.35170   6.43072
   6.44871   6.49117   6.50380   6.56216   6.71375   6.87426


              NET ATOMIC CHARGES AND DIPOLE CONTRIBUTIONS

  ATOM NO.   TYPE          CHARGE      No. of ELECS.   s-Pop       p-Pop       
    1          C          -0.317453        4.3175     1.06785     3.24960
    2          C          -0.128656        4.1287     1.07553     3.05313
    3          C          -0.316632        4.3166     1.09530     3.22133
    4          C          -0.140572        4.1406     1.09276     3.04781
    5          C          -0.255247        4.2552     1.08845     3.16680
    6          C          -0.016511        4.0165     1.06579     2.95072
    7          C           0.098856        3.9011     1.06294     2.83820
    8          C           0.042659        3.9573     1.09218     2.86516
    9          C          -0.343172        4.3432     1.06990     3.27328
   10          C           0.274815        3.7252     1.08555     2.63963
   11          C          -0.209922        4.2099     1.08288     3.12704
   12          O          -0.311208        6.3112     1.86482     4.44639
   13          N          -0.350754        5.3508     1.73811     3.61265
   14          C          -0.196452        4.1965     1.09182     3.10464
   15          C           0.006142        3.9939     1.08125     2.91261
   16          C           0.019681        3.9803     1.09077     2.88955
   17          C          -0.141058        4.1411     1.08095     3.06011
   18          C          -0.329585        4.3296     1.07110     3.25849
   19          C          -0.090297        4.0903     1.06605     3.02424
   20          C          -0.157348        4.1573     1.06788     3.08947
   21          C          -0.012681        4.0127     1.08670     2.92599
   22          N          -0.371774        5.3718     1.65270     3.71907
   23          C          -0.085979        4.0860     1.09065     2.99533
   24          N          -0.522323        5.5223     1.63609     3.88624
   25          C           0.059018        3.9410     1.07647     2.86451
   26          C          -0.271982        4.2720     1.05279     3.21920
   27          C          -0.257474        4.2575     1.06382     3.19365
   28          C          -0.117445        4.1174     1.06142     3.05603
   29          C          -0.263065        4.2631     1.06269     3.20037
   30          C          -0.296615        4.2966     1.05749     3.23913
   31          C          -0.002106        4.0021     1.07745     2.92466
   32          C          -0.191353        4.1914     1.08347     3.10788
   33          C          -0.141765        4.1418     1.08440     3.05736
   34          C          -0.168068        4.1681     1.08326     3.08481
   35          C          -0.132511        4.1325     1.08579     3.04672
   36          C          -0.182412        4.1824     1.08458     3.09783
   37          H           0.144528        0.8555     0.85547
   38          H           0.147309        0.8527     0.85269
   39          H           0.147337        0.8527     0.85266
   40          H           0.149390        0.8506     0.85061
   41          H           0.152844        0.8472     0.84716
   42          H           0.149770        0.8502     0.85023
   43          H           0.146358        0.8536     0.85364
   44          H           0.163899        0.8361     0.83610
   45          H           0.171906        0.8281     0.82809
   46          H           0.182955        0.8170     0.81705
   47          H           0.176759        0.8232     0.82324
   48          H           0.148758        0.8512     0.85124
   49          H           0.139304        0.8607     0.86070
   50          H           0.157689        0.8423     0.84231
   51          H           0.179224        0.8208     0.82078
   52          H           0.172801        0.8272     0.82720
   53          H           0.164209        0.8358     0.83579
   54          H           0.173433        0.8266     0.82657
   55          H           0.166332        0.8337     0.83367
   56          H           0.146311        0.8537     0.85369
   57          H           0.140739        0.8593     0.85926
   58          H           0.152589        0.8474     0.84741
   59          H           0.176003        0.8240     0.82400
   60          H           0.151670        0.8483     0.84833
   61          H           0.168257        0.8317     0.83174
   62          H           0.137770        0.8622     0.86223
   63          H           0.127014        0.8730     0.87299
   64          H           0.145873        0.8541     0.85413
   65          H           0.148105        0.8519     0.85190
   66          H           0.143885        0.8561     0.85611
   67          H           0.140208        0.8598     0.85979
   68          H           0.153473        0.8465     0.84653
   69          H           0.149972        0.8500     0.85003
   70          H           0.150671        0.8493     0.84933
   71          H           0.153731        0.8463     0.84627
   72          H           0.156600        0.8434     0.84340
   73          H           0.161776        0.8382     0.83822
   74          C           0.691479        3.3085     1.07924     2.22928
   75          O          -0.652641        6.6526     1.85874     4.79390
   76          O          -0.606191        6.6062     1.87931     4.72688
   77          C          -0.167523        4.1675     1.07582     3.09170
   78          C           0.020074        3.9799     1.10638     2.87355
   79          C           0.008870        3.9911     1.10486     2.88627
   80          C          -0.136257        4.1363     1.07557     3.06069
   81          H           0.214841        0.7852     0.78516
   82          C          -0.125248        4.1252     1.07518     3.05007
   83          H           0.207658        0.7923     0.79234
   84          C          -0.002423        4.0024     1.10203     2.90040
   85          H           0.216151        0.7838     0.78385
   86          N           0.631364        4.3686     1.44752     2.92112
   87          O          -0.390187        6.3902     1.94153     4.44866
   88          O          -0.384751        6.3848     1.94154     4.44321
   89          N           0.628290        4.3717     1.44819     2.92352
   90          O          -0.385456        6.3855     1.94167     4.44378
   91          O          -0.390191        6.3902     1.94173     4.44846
   92          H           0.435400        0.5646     0.56460
   93          H           0.268538        0.7315     0.73146
 DIPOLE           X         Y         Z       TOTAL
 POINT-CHG.     5.990    -4.817    -0.653     7.714
 HYBRID         0.166     0.063     0.153     0.234
 SUM            6.156    -4.754    -0.500     7.794


          ATOMIC ORBITAL ELECTRON POPULATIONS

     Atom    s        px        py        pz   
    1  C   1.06785   1.10276   1.09687   1.04997
    2  C   1.07553   1.03555   1.06843   0.94915
    3  C   1.09530   1.05508   1.04110   1.12515
    4  C   1.09276   1.05344   0.99198   1.00239
    5  C   1.08845   1.07136   1.06944   1.02599
    6  C   1.06579   0.97096   0.99242   0.98735
    7  C   1.06294   0.92217   0.99110   0.92494
    8  C   1.09218   0.98124   0.92661   0.95731
    9  C   1.06990   0.98710   1.17080   1.11537
   10  C   1.08555   0.83264   0.88383   0.92316
   11  C   1.08288   1.07019   1.05492   1.00193
   12  O   1.86482   1.30331   1.84637   1.29671
   13  N   1.73811   1.06124   1.15508   1.39633
   14  C   1.09182   1.14636   1.15432   0.80396
   15  C   1.08125   1.07558   0.87809   0.95894
   16  C   1.09077   0.95629   0.98961   0.94365
   17  C   1.08095   0.99459   0.92305   1.14247
   18  C   1.07110   1.12119   1.01444   1.12285
   19  C   1.06605   1.01847   1.03468   0.97110
   20  C   1.06788   0.99695   1.04531   1.04721
   21  C   1.08670   0.97949   0.95562   0.99087
   22  N   1.65270   1.24704   1.32003   1.15200
   23  C   1.09065   0.96020   0.95423   1.08089
   24  N   1.63609   1.20672   1.08005   1.59947
   25  C   1.07647   0.97459   0.93731   0.95261
   26  C   1.05279   0.99086   1.15742   1.07091
   27  C   1.06382   1.02119   1.12956   1.04290
   28  C   1.06142   0.96250   1.10423   0.98929
   29  C   1.06269   0.98015   1.15146   1.06875
   30  C   1.05749   1.03745   1.14356   1.05812
   31  C   1.07745   0.97806   0.97897   0.96762
   32  C   1.08347   1.00145   1.06366   1.04278
   33  C   1.08440   1.02285   1.03266   1.00185
   34  C   1.08326   1.07982   0.99572   1.00927
   35  C   1.08579   0.99520   1.05455   0.99698
   36  C   1.08458   1.02946   1.03894   1.02943
   37  H   0.85547
   38  H   0.85269
   39  H   0.85266
   40  H   0.85061
   41  H   0.84716
   42  H   0.85023
   43  H   0.85364
   44  H   0.83610
   45  H   0.82809
   46  H   0.81705
   47  H   0.82324
   48  H   0.85124
   49  H   0.86070
   50  H   0.84231
   51  H   0.82078
   52  H   0.82720
   53  H   0.83579
   54  H   0.82657
   55  H   0.83367
   56  H   0.85369
   57  H   0.85926
   58  H   0.84741
   59  H   0.82400
   60  H   0.84833
   61  H   0.83174
   62  H   0.86223
   63  H   0.87299
   64  H   0.85413
   65  H   0.85190
   66  H   0.85611
   67  H   0.85979
   68  H   0.84653
   69  H   0.85003
   70  H   0.84933
   71  H   0.84627
   72  H   0.84340
   73  H   0.83822
   74  C   1.07924   0.77401   0.77050   0.68477
   75  O   1.85874   1.34253   1.70958   1.74179
   76  O   1.87931   1.83240   1.39185   1.50263
   77  C   1.07582   1.00080   1.02821   1.06269
   78  C   1.10638   1.08216   0.92396   0.86743
   79  C   1.10486   0.96628   1.02538   0.89461
   80  C   1.07557   1.00139   0.95797   1.10134
   81  H   0.78516
   82  C   1.07518   0.90818   1.03028   1.11161
   83  H   0.79234
   84  C   1.10203   1.00823   1.01548   0.87669
   85  H   0.78385
   86  N   1.44752   0.99858   0.97057   0.95197
   87  O   1.94153   1.83731   1.16212   1.44923
   88  O   1.94154   1.55561   1.29785   1.58974
   89  N   1.44819   0.97619   0.98880   0.95852
   90  O   1.94167   1.45727   1.38544   1.60108
   91  O   1.94173   1.02706   1.85076   1.57064
   92  H   0.56460
   93  H   0.73146


                    (SZ)    =    0.500000
                    (S**2)  =    0.756777


          ATOMIC ORBITAL SPIN POPULATIONS

    Atom   Total    s     px     py     pz   
         Atomic
    1  C  0.0000  0.000  0.000  0.000  0.000
    2  C -0.0001 -0.000 -0.000 -0.000 -0.000
    3  C  0.0000  0.000  0.000  0.000  0.000
    4  C -0.0000 -0.000 -0.000 -0.000 -0.000
    5  C  0.0249  0.001  0.002  0.020  0.003
    6  C  0.0182  0.001  0.002  0.013  0.003
    7  C -0.0161 -0.001 -0.001 -0.012 -0.002
    8  C -0.0181 -0.001 -0.001 -0.014 -0.002
    9  C -0.0158 -0.001 -0.001 -0.012 -0.002
   10  C  0.0135  0.000  0.001  0.011  0.001
   11  C -0.0145 -0.000 -0.001 -0.012 -0.002
   12  O  0.0027  0.000 -0.000  0.003  0.000
   13  N  0.0182  0.000  0.001  0.014  0.002
   14  C -0.0002 -0.000 -0.000 -0.000 -0.000
   15  C  0.0822  0.015  0.012  0.052  0.003
   16  C -0.0053 -0.001 -0.001 -0.001 -0.002
   17  C -0.0000 -0.000  0.000 -0.000  0.000
   18  C  0.0004  0.000  0.000  0.000  0.000
   19  C -0.0001 -0.000 -0.000 -0.000 -0.000
   20  C  0.0000  0.000  0.000  0.000  0.000
   21  C -0.0223 -0.000 -0.002 -0.019 -0.001
   22  N  0.0006  0.000  0.000  0.000  0.000
   23  C  0.0150  0.000  0.001  0.012  0.002
   24  N -0.0138  0.013 -0.013 -0.026  0.013
   25  C  0.9147  0.028  0.477  0.344  0.065
   26  C -0.0453 -0.005 -0.017 -0.007 -0.016
   27  C  0.0300  0.005  0.022  0.001  0.002
   28  C -0.0029 -0.000 -0.001 -0.000 -0.001
   29  C  0.0339  0.005  0.025  0.001  0.002
   30  C -0.0418 -0.004 -0.010 -0.012 -0.016
   31  C  0.0020  0.000  0.001  0.000  0.000
   32  C -0.0006 -0.000 -0.000 -0.000 -0.000
   33  C  0.0004  0.000  0.000  0.000  0.000
   34  C -0.0005 -0.000 -0.000 -0.000 -0.000
   35  C  0.0004  0.000  0.000  0.000  0.000
   36  C -0.0005 -0.000 -0.000 -0.000 -0.000
   37  H -0.0000 -0.000
   38  H -0.0000 -0.000
   39  H  0.0000  0.000
   40  H  0.0000  0.000
   41  H -0.0000 -0.000
   42  H -0.0000 -0.000
   43  H  0.0000  0.000
   44  H -0.0008 -0.001
   45  H  0.0005  0.001
   46  H  0.0005  0.000
   47  H  0.0004  0.000
   48  H -0.0000 -0.000
   49  H  0.0001  0.000
   50  H  0.0001  0.000
   51  H -0.0025 -0.002
   52  H  0.0009  0.001
   53  H  0.0000  0.000
   54  H  0.0000  0.000
   55  H -0.0001 -0.000
   56  H -0.0000 -0.000
   57  H  0.0000  0.000
   58  H -0.0000 -0.000
   59  H -0.0004 -0.000
   60  H  0.0223  0.022
   61  H  0.0019  0.002
   62  H -0.0011 -0.001
   63  H -0.0009 -0.001
   64  H  0.0002  0.000
   65  H -0.0012 -0.001
   66  H  0.0002  0.000
   67  H  0.0017  0.002
   68  H  0.0175  0.017
   69  H  0.0000  0.000
   70  H -0.0000 -0.000
   71  H  0.0000  0.000
   72  H -0.0000 -0.000
   73  H  0.0000  0.000
   74  C  0.0000  0.000  0.000  0.000  0.000
   75  O  0.0000  0.000  0.000  0.000 -0.000
   76  O -0.0000 -0.000 -0.000 -0.000 -0.000
   77  C -0.0000 -0.000 -0.000 -0.000 -0.000
   78  C  0.0000  0.000  0.000  0.000  0.000
   79  C  0.0000  0.000  0.000  0.000  0.000
   80  C -0.0000 -0.000 -0.000 -0.000 -0.000
   81  H -0.0000 -0.000
   82  C -0.0000 -0.000 -0.000 -0.000 -0.000
   83  H -0.0000 -0.000
   84  C  0.0000  0.000  0.000  0.000  0.000
   85  H -0.0000 -0.000
   86  N  0.0000  0.000  0.000 -0.000  0.000
   87  O -0.0000  0.000 -0.000 -0.000 -0.000
   88  O  0.0000 -0.000  0.000  0.000  0.000
   89  N  0.0000  0.000  0.000  0.000 -0.000
   90  O -0.0000  0.000  0.000 -0.000 -0.000
   91  O -0.0000  0.000  0.000  0.000 -0.000
   92  H -0.0000 -0.000
   93  H  0.0014  0.001

 **********************
 *                    *
 * JOB ENDED NORMALLY *
 *                    *
 **********************



 TOTAL JOB TIME:            86.91 SECONDS

 == MOPAC DONE ==
