 *******************************************************************************
 ** Site#: 36969        For non-commercial use only    Version 21.051W 64BITS **
 *******************************************************************************
 ** Cite this program as: MOPAC2016, Version: 21.051W, James J. P. Stewart,   **
 ** Stewart Computational Chemistry, web: HTTP://OpenMOPAC.net. Days left: 276**
 *******************************************************************************
 **                                                                           **
 **                                MOPAC2016                                  **
 **                                                                           **
 *******************************************************************************

                              PM7 CALCULATION RESULTS

 *******************************************************************************
 *  CALCULATION DONE:                                Thu May 20 13:42:41 2021  *
 *  PM7        - The PM7 Hamiltonian to be used
 *  T=         - A TIME OF 172800.0 SECONDS REQUESTED
 *  DUMP=N     - RESTART FILE WRITTEN EVERY 7200.0 SECONDS REQUESTED
 *******************************************************************************
PM7
 imine.mop

   ATOM   CHEMICAL          X               Y               Z
  NUMBER   SYMBOL      (ANGSTROMS)     (ANGSTROMS)     (ANGSTROMS)
 
     1       C          4.37591000  *  -1.88482000  *  -2.55349000  *
     2       C          4.63857000  *  -2.21348000  *  -3.91155000  *
     3       N          3.62441000  *  -2.54723000  *  -4.74891000  *
     4       C          2.33673000  *  -2.58341000  *  -4.33683000  *
     5       C          2.01436000  *  -2.27174000  *  -3.02092000  *
     6       C          3.01866000  *  -1.91438000  *  -2.09787000  *
     7       C          5.48047000  *  -1.54995000  *  -1.73043000  *
     8       C          6.79512000  *  -1.54136000  *  -2.24155000  *
     9       C          7.01122000  *  -1.86719000  *  -3.58076000  *
    10       C          5.94394000  *  -2.20063000  *  -4.40930000  *
    11       O          7.87672000  *  -1.22788000  *  -1.48020000  *
    12       C          7.85863000  *  -0.88773000  *  -0.14301000  *
    13       C          2.58469000  *  -1.57461000  *  -0.65847000  *
    14       C          1.94159000  *  -2.80997000  *   0.04223000  *
    15       N          1.46684000  *  -2.55273000  *   1.44305000  *
    16       C          2.90165000  *  -4.04697000  *   0.03989000  *
    17       C          2.62779000  *  -4.87687000  *   1.31899000  *
    18       C          2.61268000  *  -2.59987000  *   2.39843000  *
    19       C          3.14572000  *  -4.07043000  *   2.54308000  *
    20       C          4.64654000  *  -4.23352000  *   2.74339000  *
    21       C          5.55878000  *  -3.25533000  *   2.83549000  *
    22       C          1.09240000  *  -5.02292000  *   1.46849000  *
    23       C          0.50218000  *  -3.62470000  *   1.81481000  *
    24       H          1.55758000  *  -2.85524000  *  -5.03643000  *
    25       H          0.97318000  *  -2.31050000  *  -2.73157000  *
    26       H          5.35975000  *  -1.29598000  *  -0.69665000  *
    27       H          8.01674000  *  -1.86369000  *  -3.98297000  *
    28       H          6.13470000  *  -2.45200000  *  -5.44562000  *
    29       H          8.89644000  *  -0.68882000  *   0.19410000  *
    30       H          7.25430000  *   0.03166000  *   0.01161000  *
    31       H          7.44517000  *  -1.72379000  *   0.46097000  *
    32       H          3.44192000  *  -1.30424000  *  -0.04208000  *
    33       H          1.03852000  *  -3.08216000  *  -0.55256000  *
    34       H          3.97265000  *  -3.74661000  *   0.06765000  *
    35       H          2.74117000  *  -4.62450000  *  -0.89631000  *
    36       H          3.10504000  *  -5.87938000  *   1.25752000  *
    37       H          2.34539000  *  -2.20047000  *   3.40161000  *
    38       H          3.38279000  *  -1.91754000  *   2.00658000  *
    39       H          2.67654000  *  -4.54227000  *   3.43602000  *
    40       H          5.01052000  *  -5.25352000  *   2.82983000  *
    41       H          6.60167000  *  -3.51749000  *   2.98250000  *
    42       H          5.32333000  *  -2.20244000  *   2.78102000  *
    43       H          0.79159000  *  -5.75026000  *   2.25314000  *
    44       H          0.69817000  *  -5.39531000  *   0.49674000  *
    45       H          0.31377000  *  -3.56103000  *   2.91158000  *
    46       H         -0.48722000  *  -3.49992000  *   1.32186000  *
    47       H          0.98422000  *  -1.62699000  *   1.51533000  *
    48       N          1.65203000  *  -0.42918000  *  -0.63506000  *
    49       C          2.21974000  *   0.75974000  *  -1.29560000  *
    50       C          1.10480000  *   1.74039000  *  -1.70682000  *
    51       C          3.23863000  *   1.47807000  *  -0.38649000  *
    52       C          1.70087000  *   2.94930000  *  -2.43664000  *
    53       H          0.55052000  *   2.07928000  *  -0.80353000  *
    54       H          0.38776000  *   1.23285000  *  -2.38750000  *
    55       C          3.83687000  *   2.68888000  *  -1.11295000  *
    56       H          2.73603000  *   1.80858000  *   0.54916000  *
    57       H          4.07301000  *   0.80346000  *  -0.11123000  *
    58       C          2.72822000  *   3.67122000  *  -1.54163000  *
    59       H          0.88199000  *   3.64905000  *  -2.71210000  *
    60       H          2.18614000  *   2.59427000  *  -3.37213000  *
    61       H          4.55392000  *   3.20210000  *  -0.43569000  *
    62       H          4.39664000  *   2.32620000  *  -2.00297000  *
    63       H          2.19913000  *   4.00817000  *  -0.62085000  *
    64       H          0.76268000  *  -0.70803000  *  -1.11029000  *
    65       C          3.31278000  *   4.88182000  *  -2.24880000  *
    66       C          3.13283000  *   6.16739000  *  -1.70475000  *
    67       C          4.03826000  *   4.74909000  *  -3.45035000  *
    68       C          3.66423000  *   7.29061000  *  -2.34635000  *
    69       H          2.58090000  *   6.30403000  *  -0.78327000  *
    70       C          4.56706000  *   5.87590000  *  -4.08747000  *
    71       H          4.19649000  *   3.77666000  *  -3.89761000  *
    72       C          4.38023000  *   7.14521000  *  -3.53636000  *
    73       H          3.52034000  *   8.27521000  *  -1.92033000  *
    74       H          5.12227000  *   5.76477000  *  -5.01001000  *
    75       H          4.79025000  *   8.01615000  *  -4.03145000  *
 


          CARTESIAN COORDINATES 

    NO.       ATOM           X           Y           Z

     1         C          4.3759     -1.8848     -2.5535
     2         C          4.6386     -2.2135     -3.9116
     3         N          3.6244     -2.5472     -4.7489
     4         C          2.3367     -2.5834     -4.3368
     5         C          2.0144     -2.2717     -3.0209
     6         C          3.0187     -1.9144     -2.0979
     7         C          5.4805     -1.5499     -1.7304
     8         C          6.7951     -1.5414     -2.2416
     9         C          7.0112     -1.8672     -3.5808
    10         C          5.9439     -2.2006     -4.4093
    11         O          7.8767     -1.2279     -1.4802
    12         C          7.8586     -0.8877     -0.1430
    13         C          2.5847     -1.5746     -0.6585
    14         C          1.9416     -2.8100      0.0422
    15         N          1.4668     -2.5527      1.4430
    16         C          2.9017     -4.0470      0.0399
    17         C          2.6278     -4.8769      1.3190
    18         C          2.6127     -2.5999      2.3984
    19         C          3.1457     -4.0704      2.5431
    20         C          4.6465     -4.2335      2.7434
    21         C          5.5588     -3.2553      2.8355
    22         C          1.0924     -5.0229      1.4685
    23         C          0.5022     -3.6247      1.8148
    24         H          1.5576     -2.8552     -5.0364
    25         H          0.9732     -2.3105     -2.7316
    26         H          5.3598     -1.2960     -0.6967
    27         H          8.0167     -1.8637     -3.9830
    28         H          6.1347     -2.4520     -5.4456
    29         H          8.8964     -0.6888      0.1941
    30         H          7.2543      0.0317      0.0116
    31         H          7.4452     -1.7238      0.4610
    32         H          3.4419     -1.3042     -0.0421
    33         H          1.0385     -3.0822     -0.5526
    34         H          3.9726     -3.7466      0.0677
    35         H          2.7412     -4.6245     -0.8963
    36         H          3.1050     -5.8794      1.2575
    37         H          2.3454     -2.2005      3.4016
    38         H          3.3828     -1.9175      2.0066
    39         H          2.6765     -4.5423      3.4360
    40         H          5.0105     -5.2535      2.8298
    41         H          6.6017     -3.5175      2.9825
    42         H          5.3233     -2.2024      2.7810
    43         H          0.7916     -5.7503      2.2531
    44         H          0.6982     -5.3953      0.4967
    45         H          0.3138     -3.5610      2.9116
    46         H         -0.4872     -3.4999      1.3219
    47         H          0.9842     -1.6270      1.5153
    48         N          1.6520     -0.4292     -0.6351
    49         C          2.2197      0.7597     -1.2956
    50         C          1.1048      1.7404     -1.7068
    51         C          3.2386      1.4781     -0.3865
    52         C          1.7009      2.9493     -2.4366
    53         H          0.5505      2.0793     -0.8035
    54         H          0.3878      1.2329     -2.3875
    55         C          3.8369      2.6889     -1.1130
    56         H          2.7360      1.8086      0.5492
    57         H          4.0730      0.8035     -0.1112
    58         C          2.7282      3.6712     -1.5416
    59         H          0.8820      3.6490     -2.7121
    60         H          2.1861      2.5943     -3.3721
    61         H          4.5539      3.2021     -0.4357
    62         H          4.3966      2.3262     -2.0030
    63         H          2.1991      4.0082     -0.6209
    64         H          0.7627     -0.7080     -1.1103
    65         C          3.3128      4.8818     -2.2488
    66         C          3.1328      6.1674     -1.7048
    67         C          4.0383      4.7491     -3.4504
    68         C          3.6642      7.2906     -2.3464
    69         H          2.5809      6.3040     -0.7833
    70         C          4.5671      5.8759     -4.0875
    71         H          4.1965      3.7767     -3.8976
    72         C          4.3802      7.1452     -3.5364
    73         H          3.5203      8.2752     -1.9203
    74         H          5.1223      5.7648     -5.0100
    75         H          4.7903      8.0161     -4.0315

 General Reference for PM7:
 "Optimization of Parameters for Semiempirical Methods VI: More Modifications to the 
 NDDO Approximations and Re-optimization of Parameters", J. J. P. Stewart, J. Mol. Mod., 1:32, 19 (2013)
 https://link.springer.com/article/10.1007/s00894-012-1667-x

           Empirical Formula: C32 H39 N3 O  =    75 atoms



      MOLECULAR POINT GROUP   :   C1  


      RHF CALCULATION, NO. OF DOUBLY OCCUPIED LEVELS = 94


          Geometry optimization using L-BFGS
 CYCLE:     1 TIME:   0.152 TIME LEFT:  2.00D  GRAD.:   196.635 HEAT:  148.2566
 CYCLE:     2 TIME:   0.055 TIME LEFT:  2.00D  GRAD.:   193.085 HEAT:  147.8728
 CYCLE:     3 TIME:   0.062 TIME LEFT:  2.00D  GRAD.:    69.326 HEAT:  133.8577
 CYCLE:     4 TIME:   0.062 TIME LEFT:  2.00D  GRAD.:   194.178 HEAT:  147.8794
 CYCLE:     5 TIME:   0.066 TIME LEFT:  2.00D  GRAD.:    69.977 HEAT:  133.7750
 CYCLE:     6 TIME:   0.070 TIME LEFT:  2.00D  GRAD.:    62.328 HEAT:  131.2656
 CYCLE:     7 TIME:   0.059 TIME LEFT:  2.00D  GRAD.:    69.223 HEAT:  126.6684
 CYCLE:     8 TIME:   0.059 TIME LEFT:  2.00D  GRAD.:   129.844 HEAT:  124.8144
 CYCLE:     9 TIME:   0.055 TIME LEFT:  2.00D  GRAD.:    52.416 HEAT:  122.1143
 CYCLE:    10 TIME:   0.059 TIME LEFT:  2.00D  GRAD.:    41.674 HEAT:  120.8596
 CYCLE:    11 TIME:   0.070 TIME LEFT:  2.00D  GRAD.:    48.025 HEAT:  119.4245
 CYCLE:    12 TIME:   0.078 TIME LEFT:  2.00D  GRAD.:    56.140 HEAT:  116.8055
 CYCLE:    13 TIME:   0.070 TIME LEFT:  2.00D  GRAD.:    78.015 HEAT:  113.6975
 CYCLE:    14 TIME:   0.078 TIME LEFT:  2.00D  GRAD.:    97.115 HEAT:  111.5152
 CYCLE:    15 TIME:   0.074 TIME LEFT:  2.00D  GRAD.:   286.355 HEAT:  119.9968
 CYCLE:    16 TIME:   0.098 TIME LEFT:  2.00D  GRAD.:    93.751 HEAT:  104.4416
 CYCLE:    17 TIME:   0.078 TIME LEFT:  2.00D  GRAD.:    95.481 HEAT:  103.4421
 CYCLE:    18 TIME:   0.051 TIME LEFT:  2.00D  GRAD.:   222.066 HEAT:  106.5105
 CYCLE:    19 TIME:   0.059 TIME LEFT:  2.00D  GRAD.:    83.744 HEAT:  96.74564
 CYCLE:    20 TIME:   0.047 TIME LEFT:  2.00D  GRAD.:    41.576 HEAT:  95.12310
 CYCLE:    21 TIME:   0.055 TIME LEFT:  2.00D  GRAD.:    39.846 HEAT:  93.65155
 CYCLE:    22 TIME:   0.055 TIME LEFT:  2.00D  GRAD.:    58.035 HEAT:  89.11991
 CYCLE:    23 TIME:   0.070 TIME LEFT:  2.00D  GRAD.:   185.305 HEAT:  91.09526
 CYCLE:    24 TIME:   0.078 TIME LEFT:  2.00D  GRAD.:    51.178 HEAT:  85.99849
 CYCLE:    25 TIME:   0.074 TIME LEFT:  2.00D  GRAD.:    32.729 HEAT:  84.96918
 CYCLE:    26 TIME:   0.074 TIME LEFT:  2.00D  GRAD.:    42.102 HEAT:  83.05779
 CYCLE:    27 TIME:   0.062 TIME LEFT:  2.00D  GRAD.:    48.439 HEAT:  81.57672
 CYCLE:    28 TIME:   0.059 TIME LEFT:  2.00D  GRAD.:   114.188 HEAT:  81.37769
 CYCLE:    29 TIME:   0.070 TIME LEFT:  2.00D  GRAD.:    33.501 HEAT:  78.84977
 CYCLE:    30 TIME:   0.066 TIME LEFT:  2.00D  GRAD.:    30.425 HEAT:  78.12140
 CYCLE:    31 TIME:   0.082 TIME LEFT:  2.00D  GRAD.:    41.027 HEAT:  76.72523
 CYCLE:    32 TIME:   0.074 TIME LEFT:  2.00D  GRAD.:    47.741 HEAT:  75.11495
 CYCLE:    33 TIME:   0.066 TIME LEFT:  2.00D  GRAD.:    60.703 HEAT:  74.38997
 CYCLE:    34 TIME:   0.070 TIME LEFT:  2.00D  GRAD.:    24.881 HEAT:  73.26875
 CYCLE:    35 TIME:   0.055 TIME LEFT:  2.00D  GRAD.:    25.486 HEAT:  72.76457
 CYCLE:    36 TIME:   0.062 TIME LEFT:  2.00D  GRAD.:    33.036 HEAT:  71.95584
 CYCLE:    37 TIME:   0.082 TIME LEFT:  2.00D  GRAD.:    70.224 HEAT:  71.56806
 CYCLE:    38 TIME:   0.070 TIME LEFT:  2.00D  GRAD.:    25.344 HEAT:  70.71386
 CYCLE:    39 TIME:   0.082 TIME LEFT:  2.00D  GRAD.:    16.238 HEAT:  70.39006
 CYCLE:    40 TIME:   0.074 TIME LEFT:  2.00D  GRAD.:    17.368 HEAT:  70.17396
 CYCLE:    41 TIME:   0.047 TIME LEFT:  2.00D  GRAD.:    20.418 HEAT:  69.80605
 CYCLE:    42 TIME:   0.055 TIME LEFT:  2.00D  GRAD.:    45.586 HEAT:  69.75826
 CYCLE:    43 TIME:   0.062 TIME LEFT:  2.00D  GRAD.:    13.217 HEAT:  69.39788
 CYCLE:    44 TIME:   0.066 TIME LEFT:  2.00D  GRAD.:    12.319 HEAT:  69.28549
 CYCLE:    45 TIME:   0.078 TIME LEFT:  2.00D  GRAD.:    15.238 HEAT:  69.07411
 CYCLE:    46 TIME:   0.047 TIME LEFT:  2.00D  GRAD.:    32.995 HEAT:  68.89037
 CYCLE:    47 TIME:   0.059 TIME LEFT:  2.00D  GRAD.:    17.344 HEAT:  68.61599
 CYCLE:    48 TIME:   0.066 TIME LEFT:  2.00D  GRAD.:    16.381 HEAT:  68.39466
 CYCLE:    49 TIME:   0.070 TIME LEFT:  2.00D  GRAD.:    21.400 HEAT:  68.14754
 CYCLE:    50 TIME:   0.082 TIME LEFT:  2.00D  GRAD.:    24.239 HEAT:  67.77314
 CYCLE:    51 TIME:   0.086 TIME LEFT:  2.00D  GRAD.:    31.295 HEAT:  67.50948
 CYCLE:    52 TIME:   0.066 TIME LEFT:  2.00D  GRAD.:    17.928 HEAT:  67.11262
 CYCLE:    53 TIME:   0.055 TIME LEFT:  2.00D  GRAD.:    14.947 HEAT:  66.88551
 CYCLE:    54 TIME:   0.055 TIME LEFT:  2.00D  GRAD.:    19.945 HEAT:  66.67126
 CYCLE:    55 TIME:   0.062 TIME LEFT:  2.00D  GRAD.:    15.985 HEAT:  66.49707
 CYCLE:    56 TIME:   0.055 TIME LEFT:  2.00D  GRAD.:    12.585 HEAT:  66.33144
 CYCLE:    57 TIME:   0.062 TIME LEFT:  2.00D  GRAD.:    13.357 HEAT:  66.16153
 CYCLE:    58 TIME:   0.066 TIME LEFT:  2.00D  GRAD.:    21.314 HEAT:  66.02600
 CYCLE:    59 TIME:   0.074 TIME LEFT:  2.00D  GRAD.:    15.602 HEAT:  65.84849
 CYCLE:    60 TIME:   0.059 TIME LEFT:  2.00D  GRAD.:    14.774 HEAT:  65.56115
 CYCLE:    61 TIME:   0.051 TIME LEFT:  2.00D  GRAD.:    24.628 HEAT:  65.32481
 CYCLE:    62 TIME:   0.070 TIME LEFT:  2.00D  GRAD.:    20.431 HEAT:  65.03858
 CYCLE:    63 TIME:   0.082 TIME LEFT:  2.00D  GRAD.:    21.889 HEAT:  64.47543
 CYCLE:    64 TIME:   0.066 TIME LEFT:  2.00D  GRAD.:    27.817 HEAT:  64.01116
 CYCLE:    65 TIME:   0.066 TIME LEFT:  2.00D  GRAD.:    28.904 HEAT:  63.38701
 CYCLE:    66 TIME:   0.074 TIME LEFT:  2.00D  GRAD.:    32.117 HEAT:  62.67553
 CYCLE:    67 TIME:   0.070 TIME LEFT:  2.00D  GRAD.:    23.727 HEAT:  62.13639
 CYCLE:    68 TIME:   0.078 TIME LEFT:  2.00D  GRAD.:    20.987 HEAT:  61.75367
 CYCLE:    69 TIME:   0.074 TIME LEFT:  2.00D  GRAD.:    40.707 HEAT:  61.31782
 CYCLE:    70 TIME:   0.062 TIME LEFT:  2.00D  GRAD.:    27.077 HEAT:  60.86276
 CYCLE:    71 TIME:   0.062 TIME LEFT:  2.00D  GRAD.:    19.332 HEAT:  60.60343
 CYCLE:    72 TIME:   0.059 TIME LEFT:  2.00D  GRAD.:    19.702 HEAT:  60.12511
 CYCLE:    73 TIME:   0.070 TIME LEFT:  2.00D  GRAD.:    25.306 HEAT:  59.73833
 CYCLE:    74 TIME:   0.086 TIME LEFT:  2.00D  GRAD.:    26.075 HEAT:  59.19620
 CYCLE:    75 TIME:   0.055 TIME LEFT:  2.00D  GRAD.:    23.493 HEAT:  58.81726
 CYCLE:    76 TIME:   0.059 TIME LEFT:  2.00D  GRAD.:    16.192 HEAT:  58.57710
 CYCLE:    77 TIME:   0.074 TIME LEFT:  2.00D  GRAD.:    19.911 HEAT:  58.34506
 CYCLE:    78 TIME:   0.066 TIME LEFT:  2.00D  GRAD.:    13.531 HEAT:  58.09935
 CYCLE:    79 TIME:   0.066 TIME LEFT:  2.00D  GRAD.:    12.632 HEAT:  57.92952
 CYCLE:    80 TIME:   0.066 TIME LEFT:  2.00D  GRAD.:    21.518 HEAT:  57.78939
 CYCLE:    81 TIME:   0.070 TIME LEFT:  2.00D  GRAD.:    12.066 HEAT:  57.63451
 CYCLE:    82 TIME:   0.082 TIME LEFT:  2.00D  GRAD.:    10.875 HEAT:  57.48647
 CYCLE:    83 TIME:   0.074 TIME LEFT:  2.00D  GRAD.:    12.573 HEAT:  57.37258
 CYCLE:    84 TIME:   0.074 TIME LEFT:  2.00D  GRAD.:    22.728 HEAT:  57.19599
 CYCLE:    85 TIME:   0.070 TIME LEFT:  2.00D  GRAD.:    13.611 HEAT:  56.98305
 CYCLE:    86 TIME:   0.078 TIME LEFT:  2.00D  GRAD.:    12.718 HEAT:  56.83611
 CYCLE:    87 TIME:   0.066 TIME LEFT:  2.00D  GRAD.:    16.063 HEAT:  56.65990
 CYCLE:    88 TIME:   0.066 TIME LEFT:  2.00D  GRAD.:    22.616 HEAT:  56.51485
 CYCLE:    89 TIME:   0.062 TIME LEFT:  2.00D  GRAD.:    12.212 HEAT:  56.35066
 CYCLE:    90 TIME:   0.070 TIME LEFT:  2.00D  GRAD.:    13.184 HEAT:  56.17713
 CYCLE:    91 TIME:   0.051 TIME LEFT:  2.00D  GRAD.:    13.511 HEAT:  56.02685
 CYCLE:    92 TIME:   0.070 TIME LEFT:  2.00D  GRAD.:    30.086 HEAT:  55.87373
 CYCLE:    93 TIME:   0.082 TIME LEFT:  2.00D  GRAD.:    15.049 HEAT:  55.62970
 CYCLE:    94 TIME:   0.059 TIME LEFT:  2.00D  GRAD.:    11.923 HEAT:  55.52724
 CYCLE:    95 TIME:   0.059 TIME LEFT:  2.00D  GRAD.:    14.998 HEAT:  55.31881
 CYCLE:    96 TIME:   0.074 TIME LEFT:  2.00D  GRAD.:    29.693 HEAT:  55.18211
 CYCLE:    97 TIME:   0.055 TIME LEFT:  2.00D  GRAD.:    16.073 HEAT:  54.98263
 CYCLE:    98 TIME:   0.082 TIME LEFT:  2.00D  GRAD.:    11.084 HEAT:  54.77876
 CYCLE:    99 TIME:   0.070 TIME LEFT:  2.00D  GRAD.:    12.346 HEAT:  54.66542
 CYCLE:   100 TIME:   0.070 TIME LEFT:  2.00D  GRAD.:    31.123 HEAT:  54.54642
 CYCLE:   101 TIME:   0.055 TIME LEFT:  2.00D  GRAD.:    11.318 HEAT:  54.33370
 CYCLE:   102 TIME:   0.066 TIME LEFT:  2.00D  GRAD.:     9.946 HEAT:  54.25097
 CYCLE:   103 TIME:   0.086 TIME LEFT:  2.00D  GRAD.:    14.015 HEAT:  54.11409
 CYCLE:   104 TIME:   0.074 TIME LEFT:  2.00D  GRAD.:    26.789 HEAT:  53.97825
 CYCLE:   105 TIME:   0.062 TIME LEFT:  2.00D  GRAD.:    14.458 HEAT:  53.79448
 CYCLE:   106 TIME:   0.062 TIME LEFT:  2.00D  GRAD.:    12.193 HEAT:  53.60766
 CYCLE:   107 TIME:   0.086 TIME LEFT:  2.00D  GRAD.:    13.735 HEAT:  53.49082
 CYCLE:   108 TIME:   0.090 TIME LEFT:  2.00D  GRAD.:    20.340 HEAT:  53.31703
 CYCLE:   109 TIME:   0.066 TIME LEFT:  2.00D  GRAD.:    34.003 HEAT:  53.21756
 CYCLE:   110 TIME:   0.062 TIME LEFT:  2.00D  GRAD.:    13.594 HEAT:  52.99675
 CYCLE:   111 TIME:   0.062 TIME LEFT:  2.00D  GRAD.:    10.881 HEAT:  52.87236
 CYCLE:   112 TIME:   0.062 TIME LEFT:  2.00D  GRAD.:    13.510 HEAT:  52.74905
 CYCLE:   113 TIME:   0.086 TIME LEFT:  2.00D  GRAD.:    20.757 HEAT:  52.58126
 CYCLE:   114 TIME:   0.066 TIME LEFT:  2.00D  GRAD.:    17.389 HEAT:  52.44296
 CYCLE:   115 TIME:   0.074 TIME LEFT:  2.00D  GRAD.:     8.688 HEAT:  52.34998
 CYCLE:   116 TIME:   0.055 TIME LEFT:  2.00D  GRAD.:     9.238 HEAT:  52.28467
 CYCLE:   117 TIME:   0.059 TIME LEFT:  2.00D  GRAD.:    12.351 HEAT:  52.19572
 CYCLE:   118 TIME:   0.074 TIME LEFT:  2.00D  GRAD.:    12.394 HEAT:  52.08827
 CYCLE:   119 TIME:   0.070 TIME LEFT:  2.00D  GRAD.:     9.061 HEAT:  52.00085
 CYCLE:   120 TIME:   0.082 TIME LEFT:  2.00D  GRAD.:    10.180 HEAT:  51.88873
 CYCLE:   121 TIME:   0.074 TIME LEFT:  2.00D  GRAD.:    13.814 HEAT:  51.78602
 CYCLE:   122 TIME:   0.070 TIME LEFT:  2.00D  GRAD.:    12.052 HEAT:  51.64741
 CYCLE:   123 TIME:   0.062 TIME LEFT:  2.00D  GRAD.:     9.288 HEAT:  51.56034
 CYCLE:   124 TIME:   0.074 TIME LEFT:  2.00D  GRAD.:    11.881 HEAT:  51.46807
 CYCLE:   125 TIME:   0.062 TIME LEFT:  2.00D  GRAD.:    12.493 HEAT:  51.39043
 CYCLE:   126 TIME:   0.078 TIME LEFT:  2.00D  GRAD.:     8.892 HEAT:  51.28736
 CYCLE:   127 TIME:   0.078 TIME LEFT:  2.00D  GRAD.:     8.446 HEAT:  51.20989
 CYCLE:   128 TIME:   0.070 TIME LEFT:  2.00D  GRAD.:     9.188 HEAT:  51.12765
 CYCLE:   129 TIME:   0.059 TIME LEFT:  2.00D  GRAD.:    14.312 HEAT:  51.04250
 CYCLE:   130 TIME:   0.066 TIME LEFT:  2.00D  GRAD.:     9.337 HEAT:  50.93934
 CYCLE:   131 TIME:   0.062 TIME LEFT:  2.00D  GRAD.:     8.765 HEAT:  50.86334
 CYCLE:   132 TIME:   0.062 TIME LEFT:  2.00D  GRAD.:     8.366 HEAT:  50.80677
 CYCLE:   133 TIME:   0.066 TIME LEFT:  2.00D  GRAD.:    10.380 HEAT:  50.74113
 CYCLE:   134 TIME:   0.070 TIME LEFT:  2.00D  GRAD.:     9.211 HEAT:  50.65006
 CYCLE:   135 TIME:   0.074 TIME LEFT:  2.00D  GRAD.:    13.044 HEAT:  50.54872
 CYCLE:   136 TIME:   0.070 TIME LEFT:  2.00D  GRAD.:    10.234 HEAT:  50.43057
 CYCLE:   137 TIME:   0.062 TIME LEFT:  2.00D  GRAD.:     9.360 HEAT:  50.33961
 CYCLE:   138 TIME:   0.074 TIME LEFT:  2.00D  GRAD.:    10.301 HEAT:  50.23380
 CYCLE:   139 TIME:   0.062 TIME LEFT:  2.00D  GRAD.:    17.057 HEAT:  50.14625
 CYCLE:   140 TIME:   0.070 TIME LEFT:  2.00D  GRAD.:     9.849 HEAT:  50.05166
 CYCLE:   141 TIME:   0.070 TIME LEFT:  2.00D  GRAD.:     8.819 HEAT:  49.96507
 CYCLE:   142 TIME:   0.066 TIME LEFT:  2.00D  GRAD.:    10.008 HEAT:  49.87559
 CYCLE:   143 TIME:   0.074 TIME LEFT:  2.00D  GRAD.:    19.449 HEAT:  49.79425
 CYCLE:   144 TIME:   0.074 TIME LEFT:  2.00D  GRAD.:     8.477 HEAT:  49.68967
 CYCLE:   145 TIME:   0.066 TIME LEFT:  2.00D  GRAD.:     7.416 HEAT:  49.64337
 CYCLE:   146 TIME:   0.070 TIME LEFT:  2.00D  GRAD.:     9.448 HEAT:  49.55271
 CYCLE:   147 TIME:   0.070 TIME LEFT:  2.00D  GRAD.:    22.939 HEAT:  49.49889
 CYCLE:   148 TIME:   0.074 TIME LEFT:  2.00D  GRAD.:    10.094 HEAT:  49.39497
 CYCLE:   149 TIME:   0.074 TIME LEFT:  2.00D  GRAD.:     6.568 HEAT:  49.33169
 CYCLE:   150 TIME:   0.074 TIME LEFT:  2.00D  GRAD.:     8.871 HEAT:  49.27807
 CYCLE:   151 TIME:   0.066 TIME LEFT:  2.00D  GRAD.:    12.967 HEAT:  49.20451
 CYCLE:   152 TIME:   0.070 TIME LEFT:  2.00D  GRAD.:     7.879 HEAT:  49.10787
 CYCLE:   153 TIME:   0.078 TIME LEFT:  2.00D  GRAD.:     8.068 HEAT:  49.04159
 CYCLE:   154 TIME:   0.070 TIME LEFT:  2.00D  GRAD.:    10.778 HEAT:  48.96259
 CYCLE:   155 TIME:   0.082 TIME LEFT:  2.00D  GRAD.:    10.108 HEAT:  48.87094
 CYCLE:   156 TIME:   0.074 TIME LEFT:  2.00D  GRAD.:     9.634 HEAT:  48.77383
 CYCLE:   157 TIME:   0.078 TIME LEFT:  2.00D  GRAD.:    12.273 HEAT:  48.67466
 CYCLE:   158 TIME:   0.074 TIME LEFT:  2.00D  GRAD.:    10.198 HEAT:  48.57960
 CYCLE:   159 TIME:   0.070 TIME LEFT:  2.00D  GRAD.:    10.423 HEAT:  48.48763
 CYCLE:   160 TIME:   0.062 TIME LEFT:  2.00D  GRAD.:    11.066 HEAT:  48.42038
 CYCLE:   161 TIME:   0.074 TIME LEFT:  2.00D  GRAD.:     7.489 HEAT:  48.37017
 CYCLE:   162 TIME:   0.066 TIME LEFT:  2.00D  GRAD.:     6.975 HEAT:  48.31223
 CYCLE:   163 TIME:   0.070 TIME LEFT:  2.00D  GRAD.:    10.043 HEAT:  48.26321
 CYCLE:   164 TIME:   0.066 TIME LEFT:  2.00D  GRAD.:     7.373 HEAT:  48.20933
 CYCLE:   165 TIME:   0.070 TIME LEFT:  2.00D  GRAD.:     6.897 HEAT:  48.15556
 CYCLE:   166 TIME:   0.078 TIME LEFT:  2.00D  GRAD.:     9.814 HEAT:  48.11120
 CYCLE:   167 TIME:   0.074 TIME LEFT:  2.00D  GRAD.:     7.411 HEAT:  48.06424
 CYCLE:   168 TIME:   0.074 TIME LEFT:  2.00D  GRAD.:     8.299 HEAT:  48.00015
 CYCLE:   169 TIME:   0.074 TIME LEFT:  2.00D  GRAD.:    13.219 HEAT:  47.94859
 CYCLE:   170 TIME:   0.078 TIME LEFT:  2.00D  GRAD.:     8.061 HEAT:  47.88604
 CYCLE:   171 TIME:   0.070 TIME LEFT:  2.00D  GRAD.:     7.401 HEAT:  47.80589
 CYCLE:   172 TIME:   0.082 TIME LEFT:  2.00D  GRAD.:     8.722 HEAT:  47.74232
 CYCLE:   173 TIME:   0.078 TIME LEFT:  2.00D  GRAD.:    13.675 HEAT:  47.68875
 CYCLE:   174 TIME:   0.062 TIME LEFT:  2.00D  GRAD.:     4.969 HEAT:  47.64138
 CYCLE:   175 TIME:   0.043 TIME LEFT:  2.00D  GRAD.:     5.650 HEAT:  47.62162
 CYCLE:   176 TIME:   0.051 TIME LEFT:  2.00D  GRAD.:     6.600 HEAT:  47.59161
 CYCLE:   177 TIME:   0.066 TIME LEFT:  2.00D  GRAD.:    14.921 HEAT:  47.56489
 CYCLE:   178 TIME:   0.066 TIME LEFT:  2.00D  GRAD.:     7.544 HEAT:  47.52144
 CYCLE:   179 TIME:   0.055 TIME LEFT:  2.00D  GRAD.:     4.465 HEAT:  47.50451
 CYCLE:   180 TIME:   0.047 TIME LEFT:  2.00D  GRAD.:     4.552 HEAT:  47.48378
 CYCLE:   181 TIME:   0.043 TIME LEFT:  2.00D  GRAD.:     5.622 HEAT:  47.45839
 CYCLE:   182 TIME:   0.059 TIME LEFT:  2.00D  GRAD.:    11.287 HEAT:  47.43071
 CYCLE:   183 TIME:   0.070 TIME LEFT:  2.00D  GRAD.:     5.170 HEAT:  47.39651
 CYCLE:   184 TIME:   0.051 TIME LEFT:  2.00D  GRAD.:     4.627 HEAT:  47.37523
 CYCLE:   185 TIME:   0.078 TIME LEFT:  2.00D  GRAD.:     7.916 HEAT:  47.34536
 CYCLE:   186 TIME:   0.047 TIME LEFT:  2.00D  GRAD.:     7.309 HEAT:  47.31238
 CYCLE:   187 TIME:   0.051 TIME LEFT:  2.00D  GRAD.:     9.742 HEAT:  47.25446
 CYCLE:   188 TIME:   0.047 TIME LEFT:  2.00D  GRAD.:     7.652 HEAT:  47.21441
 CYCLE:   189 TIME:   0.078 TIME LEFT:  2.00D  GRAD.:     5.927 HEAT:  47.18846
 CYCLE:   190 TIME:   0.047 TIME LEFT:  2.00D  GRAD.:     5.946 HEAT:  47.13824
 CYCLE:   191 TIME:   0.062 TIME LEFT:  2.00D  GRAD.:    18.004 HEAT:  47.13258
 CYCLE:   192 TIME:   0.047 TIME LEFT:  2.00D  GRAD.:     6.266 HEAT:  47.08337
 CYCLE:   193 TIME:   0.055 TIME LEFT:  2.00D  GRAD.:     4.877 HEAT:  47.05813
 CYCLE:   194 TIME:   0.047 TIME LEFT:  2.00D  GRAD.:     5.903 HEAT:  47.02709
 CYCLE:   195 TIME:   0.051 TIME LEFT:  2.00D  GRAD.:    11.567 HEAT:  46.98219
 CYCLE:   196 TIME:   0.043 TIME LEFT:  2.00D  GRAD.:     8.937 HEAT:  46.94263
 CYCLE:   197 TIME:   0.047 TIME LEFT:  2.00D  GRAD.:     5.207 HEAT:  46.91423
 CYCLE:   198 TIME:   0.051 TIME LEFT:  2.00D  GRAD.:     6.215 HEAT:  46.87947
 CYCLE:   199 TIME:   0.051 TIME LEFT:  2.00D  GRAD.:     5.814 HEAT:  46.84483
 CYCLE:   200 TIME:   0.066 TIME LEFT:  2.00D  GRAD.:     8.307 HEAT:  46.78148
 CYCLE:   201 TIME:   0.062 TIME LEFT:  2.00D  GRAD.:    14.749 HEAT:  46.76414
 CYCLE:   202 TIME:   0.059 TIME LEFT:  2.00D  GRAD.:     5.503 HEAT:  46.72924
 CYCLE:   203 TIME:   0.082 TIME LEFT:  2.00D  GRAD.:     4.625 HEAT:  46.70300
 CYCLE:   204 TIME:   0.066 TIME LEFT:  2.00D  GRAD.:     4.875 HEAT:  46.68008
 CYCLE:   205 TIME:   0.055 TIME LEFT:  2.00D  GRAD.:     6.811 HEAT:  46.64944
 CYCLE:   206 TIME:   0.055 TIME LEFT:  2.00D  GRAD.:     4.684 HEAT:  46.62799
 CYCLE:   207 TIME:   0.047 TIME LEFT:  2.00D  GRAD.:     3.931 HEAT:  46.61428
 CYCLE:   208 TIME:   0.066 TIME LEFT:  2.00D  GRAD.:     6.778 HEAT:  46.59413
 CYCLE:   209 TIME:   0.047 TIME LEFT:  2.00D  GRAD.:     8.390 HEAT:  46.56704
 CYCLE:   210 TIME:   0.070 TIME LEFT:  2.00D  GRAD.:     4.508 HEAT:  46.54307
 CYCLE:   211 TIME:   0.055 TIME LEFT:  2.00D  GRAD.:     3.089 HEAT:  46.52984
 CYCLE:   212 TIME:   0.047 TIME LEFT:  2.00D  GRAD.:     3.174 HEAT:  46.51502
 CYCLE:   213 TIME:   0.090 TIME LEFT:  2.00D  GRAD.:     5.620 HEAT:  46.49414
 CYCLE:   214 TIME:   0.059 TIME LEFT:  2.00D  GRAD.:     8.037 HEAT:  46.48466
 CYCLE:   215 TIME:   0.047 TIME LEFT:  2.00D  GRAD.:     4.615 HEAT:  46.47114
 CYCLE:   216 TIME:   0.047 TIME LEFT:  2.00D  GRAD.:    11.822 HEAT:  46.46708
 CYCLE:   217 TIME:   0.051 TIME LEFT:  2.00D  GRAD.:     3.296 HEAT:  46.44320
 CYCLE:   218 TIME:   0.043 TIME LEFT:  2.00D  GRAD.:     2.774 HEAT:  46.43468
 CYCLE:   219 TIME:   0.059 TIME LEFT:  2.00D  GRAD.:     3.197 HEAT:  46.42202
 CYCLE:   220 TIME:   0.047 TIME LEFT:  2.00D  GRAD.:     9.212 HEAT:  46.40336
 CYCLE:   221 TIME:   0.062 TIME LEFT:  2.00D  GRAD.:     3.793 HEAT:  46.38455
 CYCLE:   222 TIME:   0.047 TIME LEFT:  2.00D  GRAD.:     3.062 HEAT:  46.37657
 CYCLE:   223 TIME:   0.051 TIME LEFT:  2.00D  GRAD.:     7.213 HEAT:  46.36106
 CYCLE:   224 TIME:   0.047 TIME LEFT:  2.00D  GRAD.:     4.959 HEAT:  46.34186
 CYCLE:   225 TIME:   0.055 TIME LEFT:  2.00D  GRAD.:     3.679 HEAT:  46.31573
 CYCLE:   226 TIME:   0.051 TIME LEFT:  2.00D  GRAD.:     6.381 HEAT:  46.29140
 CYCLE:   227 TIME:   0.043 TIME LEFT:  2.00D  GRAD.:     5.365 HEAT:  46.26856
 CYCLE:   228 TIME:   0.047 TIME LEFT:  2.00D  GRAD.:     4.767 HEAT:  46.24669
 CYCLE:   229 TIME:   0.047 TIME LEFT:  2.00D  GRAD.:     4.873 HEAT:  46.21993
 CYCLE:   230 TIME:   0.047 TIME LEFT:  2.00D  GRAD.:     5.065 HEAT:  46.19913
 CYCLE:   231 TIME:   0.047 TIME LEFT:  2.00D  GRAD.:     4.931 HEAT:  46.15538
 CYCLE:   232 TIME:   0.047 TIME LEFT:  2.00D  GRAD.:    19.273 HEAT:  46.17176
 CYCLE:   233 TIME:   0.059 TIME LEFT:  2.00D  GRAD.:     4.998 HEAT:  46.10991
 CYCLE:   234 TIME:   0.055 TIME LEFT:  2.00D  GRAD.:     3.982 HEAT:  46.09236
 CYCLE:   235 TIME:   0.074 TIME LEFT:  2.00D  GRAD.:     5.701 HEAT:  46.05886
 CYCLE:   236 TIME:   0.086 TIME LEFT:  2.00D  GRAD.:     6.227 HEAT:  46.02073
 CYCLE:   237 TIME:   0.055 TIME LEFT:  2.00D  GRAD.:    14.878 HEAT:  46.00046
 CYCLE:   238 TIME:   0.078 TIME LEFT:  2.00D  GRAD.:     6.009 HEAT:  45.96102
 CYCLE:   239 TIME:   0.051 TIME LEFT:  2.00D  GRAD.:     7.069 HEAT:  45.93063
 CYCLE:   240 TIME:   0.047 TIME LEFT:  2.00D  GRAD.:     5.466 HEAT:  45.90709
 CYCLE:   241 TIME:   0.059 TIME LEFT:  2.00D  GRAD.:     5.966 HEAT:  45.84937
 CYCLE:   242 TIME:   0.059 TIME LEFT:  2.00D  GRAD.:    15.343 HEAT:  45.83526
 CYCLE:   243 TIME:   0.059 TIME LEFT:  2.00D  GRAD.:     6.440 HEAT:  45.79178
 CYCLE:   244 TIME:   0.051 TIME LEFT:  2.00D  GRAD.:     5.186 HEAT:  45.75513
 CYCLE:   245 TIME:   0.047 TIME LEFT:  2.00D  GRAD.:     6.202 HEAT:  45.71450
 CYCLE:   246 TIME:   0.062 TIME LEFT:  2.00D  GRAD.:     8.876 HEAT:  45.64851
 CYCLE:   247 TIME:   0.059 TIME LEFT:  2.00D  GRAD.:    11.134 HEAT:  45.58085
 CYCLE:   248 TIME:   0.043 TIME LEFT:  2.00D  GRAD.:     6.668 HEAT:  45.52966
 CYCLE:   249 TIME:   0.047 TIME LEFT:  2.00D  GRAD.:     8.741 HEAT:  45.49702
 CYCLE:   250 TIME:   0.047 TIME LEFT:  2.00D  GRAD.:     9.864 HEAT:  45.45929
 CYCLE:   251 TIME:   0.055 TIME LEFT:  2.00D  GRAD.:     7.121 HEAT:  45.40193
 CYCLE:   252 TIME:   0.062 TIME LEFT:  2.00D  GRAD.:     8.575 HEAT:  45.36730
 CYCLE:   253 TIME:   0.078 TIME LEFT:  2.00D  GRAD.:     5.302 HEAT:  45.34699
 CYCLE:   254 TIME:   0.062 TIME LEFT:  2.00D  GRAD.:     5.202 HEAT:  45.32128
 CYCLE:   255 TIME:   0.051 TIME LEFT:  2.00D  GRAD.:     6.577 HEAT:  45.28246
 CYCLE:   256 TIME:   0.078 TIME LEFT:  2.00D  GRAD.:     9.874 HEAT:  45.24342
 CYCLE:   257 TIME:   0.051 TIME LEFT:  2.00D  GRAD.:     6.758 HEAT:  45.20187
 CYCLE:   258 TIME:   0.047 TIME LEFT:  2.00D  GRAD.:     4.861 HEAT:  45.17229
 CYCLE:   259 TIME:   0.047 TIME LEFT:  2.00D  GRAD.:     6.990 HEAT:  45.14208
 CYCLE:   260 TIME:   0.047 TIME LEFT:  2.00D  GRAD.:     8.339 HEAT:  45.11488
 CYCLE:   261 TIME:   0.062 TIME LEFT:  2.00D  GRAD.:     8.151 HEAT:  45.07148
 CYCLE:   262 TIME:   0.066 TIME LEFT:  2.00D  GRAD.:     9.611 HEAT:  45.03157
 CYCLE:   263 TIME:   0.051 TIME LEFT:  2.00D  GRAD.:     5.286 HEAT:  45.00562
 CYCLE:   264 TIME:   0.051 TIME LEFT:  2.00D  GRAD.:     5.307 HEAT:  44.98716
 CYCLE:   265 TIME:   0.047 TIME LEFT:  2.00D  GRAD.:     7.773 HEAT:  44.95065
 CYCLE:   266 TIME:   0.051 TIME LEFT:  2.00D  GRAD.:    12.329 HEAT:  44.93248
 CYCLE:   267 TIME:   0.066 TIME LEFT:  2.00D  GRAD.:     5.327 HEAT:  44.90172
 CYCLE:   268 TIME:   0.047 TIME LEFT:  2.00D  GRAD.:     4.264 HEAT:  44.88273
 CYCLE:   269 TIME:   0.055 TIME LEFT:  2.00D  GRAD.:     5.570 HEAT:  44.86163
 CYCLE:   270 TIME:   0.059 TIME LEFT:  2.00D  GRAD.:     6.372 HEAT:  44.82998
 CYCLE:   271 TIME:   0.062 TIME LEFT:  2.00D  GRAD.:    18.232 HEAT:  44.85201
 CYCLE:   272 TIME:   0.066 TIME LEFT:  2.00D  GRAD.:     3.906 HEAT:  44.79224
 CYCLE:   273 TIME:   0.051 TIME LEFT:  2.00D  GRAD.:     3.197 HEAT:  44.78326
 CYCLE:   274 TIME:   0.043 TIME LEFT:  2.00D  GRAD.:     4.712 HEAT:  44.76327
 CYCLE:   275 TIME:   0.047 TIME LEFT:  2.00D  GRAD.:     6.179 HEAT:  44.74657
 CYCLE:   276 TIME:   0.055 TIME LEFT:  2.00D  GRAD.:     5.120 HEAT:  44.72920
 CYCLE:   277 TIME:   0.051 TIME LEFT:  2.00D  GRAD.:     3.729 HEAT:  44.71584
 CYCLE:   278 TIME:   0.055 TIME LEFT:  2.00D  GRAD.:     4.371 HEAT:  44.70217
 CYCLE:   279 TIME:   0.062 TIME LEFT:  2.00D  GRAD.:     4.943 HEAT:  44.68600
 CYCLE:   280 TIME:   0.059 TIME LEFT:  2.00D  GRAD.:     9.088 HEAT:  44.67845
 CYCLE:   281 TIME:   0.043 TIME LEFT:  2.00D  GRAD.:     3.085 HEAT:  44.66050
 CYCLE:   282 TIME:   0.047 TIME LEFT:  2.00D  GRAD.:     2.780 HEAT:  44.65423
 CYCLE:   283 TIME:   0.043 TIME LEFT:  2.00D  GRAD.:     3.821 HEAT:  44.64437
 CYCLE:   284 TIME:   0.059 TIME LEFT:  2.00D  GRAD.:     8.791 HEAT:  44.63784
 CYCLE:   285 TIME:   0.055 TIME LEFT:  2.00D  GRAD.:     3.720 HEAT:  44.62493
 CYCLE:   286 TIME:   0.059 TIME LEFT:  2.00D  GRAD.:     2.714 HEAT:  44.61651
 CYCLE:   287 TIME:   0.055 TIME LEFT:  2.00D  GRAD.:     3.016 HEAT:  44.61011
 CYCLE:   288 TIME:   0.082 TIME LEFT:  2.00D  GRAD.:     3.769 HEAT:  44.59532
 CYCLE:   289 TIME:   0.051 TIME LEFT:  2.00D  GRAD.:    11.139 HEAT:  44.59921
 CYCLE:   290 TIME:   0.082 TIME LEFT:  2.00D  GRAD.:     3.174 HEAT:  44.57729
 CYCLE:   291 TIME:   0.059 TIME LEFT:  2.00D  GRAD.:     2.348 HEAT:  44.57084
 CYCLE:   292 TIME:   0.082 TIME LEFT:  2.00D  GRAD.:     3.109 HEAT:  44.55983
 CYCLE:   293 TIME:   0.074 TIME LEFT:  2.00D  GRAD.:     5.927 HEAT:  44.54958
 CYCLE:   294 TIME:   0.078 TIME LEFT:  2.00D  GRAD.:     3.479 HEAT:  44.53761
 CYCLE:   295 TIME:   0.051 TIME LEFT:  2.00D  GRAD.:     3.151 HEAT:  44.52481
 CYCLE:   296 TIME:   0.047 TIME LEFT:  2.00D  GRAD.:     3.969 HEAT:  44.50815
 CYCLE:   297 TIME:   0.051 TIME LEFT:  2.00D  GRAD.:     9.853 HEAT:  44.50279
 CYCLE:   298 TIME:   0.074 TIME LEFT:  2.00D  GRAD.:     3.562 HEAT:  44.48535
 CYCLE:   299 TIME:   0.051 TIME LEFT:  2.00D  GRAD.:     3.188 HEAT:  44.47569
 CYCLE:   300 TIME:   0.062 TIME LEFT:  2.00D  GRAD.:     4.009 HEAT:  44.46184
 CYCLE:   301 TIME:   0.066 TIME LEFT:  2.00D  GRAD.:     5.268 HEAT:  44.44265
 CYCLE:   302 TIME:   0.047 TIME LEFT:  2.00D  GRAD.:     9.212 HEAT:  44.43583
 CYCLE:   303 TIME:   0.055 TIME LEFT:  2.00D  GRAD.:     2.970 HEAT:  44.41978
 CYCLE:   304 TIME:   0.062 TIME LEFT:  2.00D  GRAD.:     2.931 HEAT:  44.41213
 CYCLE:   305 TIME:   0.047 TIME LEFT:  2.00D  GRAD.:     3.993 HEAT:  44.39375
 CYCLE:   306 TIME:   0.074 TIME LEFT:  2.00D  GRAD.:     6.315 HEAT:  44.37692
 CYCLE:   307 TIME:   0.062 TIME LEFT:  2.00D  GRAD.:     4.859 HEAT:  44.36253
 CYCLE:   308 TIME:   0.055 TIME LEFT:  2.00D  GRAD.:     3.311 HEAT:  44.35263
 CYCLE:   309 TIME:   0.055 TIME LEFT:  2.00D  GRAD.:     5.091 HEAT:  44.33783
 CYCLE:   310 TIME:   0.047 TIME LEFT:  2.00D  GRAD.:     5.281 HEAT:  44.32647
 CYCLE:   311 TIME:   0.047 TIME LEFT:  2.00D  GRAD.:     4.192 HEAT:  44.30775
 CYCLE:   312 TIME:   0.094 TIME LEFT:  2.00D  GRAD.:     6.332 HEAT:  44.28892
 CYCLE:   313 TIME:   0.047 TIME LEFT:  2.00D  GRAD.:     5.426 HEAT:  44.27328
 CYCLE:   314 TIME:   0.059 TIME LEFT:  2.00D  GRAD.:     3.347 HEAT:  44.26293
 CYCLE:   315 TIME:   0.062 TIME LEFT:  2.00D  GRAD.:     3.841 HEAT:  44.24990
 CYCLE:   316 TIME:   0.059 TIME LEFT:  2.00D  GRAD.:     3.233 HEAT:  44.23913
 CYCLE:   317 TIME:   0.055 TIME LEFT:  2.00D  GRAD.:     4.272 HEAT:  44.22117
 CYCLE:   318 TIME:   0.055 TIME LEFT:  2.00D  GRAD.:     6.386 HEAT:  44.21562
 CYCLE:   319 TIME:   0.062 TIME LEFT:  2.00D  GRAD.:     3.014 HEAT:  44.20823
 CYCLE:   320 TIME:   0.047 TIME LEFT:  2.00D  GRAD.:     2.402 HEAT:  44.20152
 CYCLE:   321 TIME:   0.059 TIME LEFT:  2.00D  GRAD.:     2.608 HEAT:  44.19555
 CYCLE:   322 TIME:   0.059 TIME LEFT:  2.00D  GRAD.:     5.706 HEAT:  44.18637
 CYCLE:   323 TIME:   0.062 TIME LEFT:  2.00D  GRAD.:     6.028 HEAT:  44.18011
 CYCLE:   324 TIME:   0.070 TIME LEFT:  2.00D  GRAD.:     2.548 HEAT:  44.17279
 CYCLE:   325 TIME:   0.062 TIME LEFT:  2.00D  GRAD.:     2.321 HEAT:  44.16691
 CYCLE:   326 TIME:   0.066 TIME LEFT:  2.00D  GRAD.:     3.086 HEAT:  44.16010
 CYCLE:   327 TIME:   0.078 TIME LEFT:  2.00D  GRAD.:     5.856 HEAT:  44.14727
 CYCLE:   328 TIME:   0.047 TIME LEFT:  2.00D  GRAD.:     4.837 HEAT:  44.13367
 CYCLE:   329 TIME:   0.074 TIME LEFT:  2.00D  GRAD.:     3.208 HEAT:  44.12115
 CYCLE:   330 TIME:   0.055 TIME LEFT:  2.00D  GRAD.:     4.275 HEAT:  44.10463
 CYCLE:   331 TIME:   0.047 TIME LEFT:  2.00D  GRAD.:     6.427 HEAT:  44.09063
 CYCLE:   332 TIME:   0.055 TIME LEFT:  2.00D  GRAD.:     4.418 HEAT:  44.07108
 CYCLE:   333 TIME:   0.047 TIME LEFT:  2.00D  GRAD.:     3.986 HEAT:  44.05369
 CYCLE:   334 TIME:   0.070 TIME LEFT:  2.00D  GRAD.:     4.142 HEAT:  44.03849
 CYCLE:   335 TIME:   0.082 TIME LEFT:  2.00D  GRAD.:     3.334 HEAT:  44.02744
 CYCLE:   336 TIME:   0.051 TIME LEFT:  2.00D  GRAD.:     2.656 HEAT:  44.01744
 CYCLE:   337 TIME:   0.055 TIME LEFT:  2.00D  GRAD.:     4.246 HEAT:  44.00746
 CYCLE:   338 TIME:   0.062 TIME LEFT:  2.00D  GRAD.:     3.499 HEAT:  43.99993
 CYCLE:   339 TIME:   0.055 TIME LEFT:  2.00D  GRAD.:     2.460 HEAT:  43.99396
 CYCLE:   340 TIME:   0.047 TIME LEFT:  2.00D  GRAD.:     2.957 HEAT:  43.98393
 CYCLE:   341 TIME:   0.062 TIME LEFT:  2.00D  GRAD.:     7.193 HEAT:  43.97992
 CYCLE:   342 TIME:   0.043 TIME LEFT:  2.00D  GRAD.:     3.086 HEAT:  43.97149
 CYCLE:   343 TIME:   0.086 TIME LEFT:  2.00D  GRAD.:     2.295 HEAT:  43.96510
 CYCLE:   344 TIME:   0.051 TIME LEFT:  2.00D  GRAD.:     2.481 HEAT:  43.95995
 CYCLE:   345 TIME:   0.059 TIME LEFT:  2.00D  GRAD.:     4.748 HEAT:  43.94756
 CYCLE:   346 TIME:   0.059 TIME LEFT:  2.00D  GRAD.:     8.569 HEAT:  43.94873
 CYCLE:   347 TIME:   0.059 TIME LEFT:  2.00D  GRAD.:     2.115 HEAT:  43.93630
 CYCLE:   348 TIME:   0.055 TIME LEFT:  2.00D  GRAD.:     1.605 HEAT:  43.93344
 CYCLE:   349 TIME:   0.051 TIME LEFT:  2.00D  GRAD.:     1.890 HEAT:  43.92865
 CYCLE:   350 TIME:   0.051 TIME LEFT:  2.00D  GRAD.:     3.310 HEAT:  43.92291
 CYCLE:   351 TIME:   0.043 TIME LEFT:  2.00D  GRAD.:     2.894 HEAT:  43.91818
 CYCLE:   352 TIME:   0.062 TIME LEFT:  2.00D  GRAD.:     1.409 HEAT:  43.91514
 CYCLE:   353 TIME:   0.047 TIME LEFT:  2.00D  GRAD.:     1.778 HEAT:  43.91252
 CYCLE:   354 TIME:   0.066 TIME LEFT:  2.00D  GRAD.:     1.758 HEAT:  43.91011
 CYCLE:   355 TIME:   0.055 TIME LEFT:  2.00D  GRAD.:     2.014 HEAT:  43.90549
 CYCLE:   356 TIME:   0.055 TIME LEFT:  2.00D  GRAD.:     2.779 HEAT:  43.90291
 CYCLE:   357 TIME:   0.086 TIME LEFT:  2.00D  GRAD.:     1.769 HEAT:  43.90049
 CYCLE:   358 TIME:   0.066 TIME LEFT:  2.00D  GRAD.:     1.694 HEAT:  43.89589
 CYCLE:   359 TIME:   0.051 TIME LEFT:  2.00D  GRAD.:     2.022 HEAT:  43.89288
 CYCLE:   360 TIME:   0.047 TIME LEFT:  2.00D  GRAD.:     2.452 HEAT:  43.88533
 CYCLE:   361 TIME:   0.070 TIME LEFT:  2.00D  GRAD.:     6.270 HEAT:  43.88222
 CYCLE:   362 TIME:   0.047 TIME LEFT:  2.00D  GRAD.:     2.658 HEAT:  43.87508
 CYCLE:   363 TIME:   0.055 TIME LEFT:  2.00D  GRAD.:     1.841 HEAT:  43.87008
 CYCLE:   364 TIME:   0.059 TIME LEFT:  2.00D  GRAD.:     2.354 HEAT:  43.86480
 CYCLE:   365 TIME:   0.051 TIME LEFT:  2.00D  GRAD.:     3.033 HEAT:  43.85677
 CYCLE:   366 TIME:   0.062 TIME LEFT:  2.00D  GRAD.:     3.867 HEAT:  43.84699
 CYCLE:   367 TIME:   0.055 TIME LEFT:  2.00D  GRAD.:     3.417 HEAT:  43.83709
 CYCLE:   368 TIME:   0.070 TIME LEFT:  2.00D  GRAD.:     4.345 HEAT:  43.82396
 CYCLE:   369 TIME:   0.043 TIME LEFT:  2.00D  GRAD.:     4.317 HEAT:  43.81065
 CYCLE:   370 TIME:   0.051 TIME LEFT:  2.00D  GRAD.:     3.834 HEAT:  43.79614
 CYCLE:   371 TIME:   0.066 TIME LEFT:  2.00D  GRAD.:     6.078 HEAT:  43.78051
 CYCLE:   372 TIME:   0.055 TIME LEFT:  2.00D  GRAD.:     4.303 HEAT:  43.75799
 CYCLE:   373 TIME:   0.062 TIME LEFT:  2.00D  GRAD.:     4.650 HEAT:  43.73638
 CYCLE:   374 TIME:   0.059 TIME LEFT:  2.00D  GRAD.:     7.630 HEAT:  43.71905
 CYCLE:   375 TIME:   0.043 TIME LEFT:  2.00D  GRAD.:     4.482 HEAT:  43.69861
 CYCLE:   376 TIME:   0.047 TIME LEFT:  2.00D  GRAD.:     4.466 HEAT:  43.67828
 CYCLE:   377 TIME:   0.062 TIME LEFT:  2.00D  GRAD.:     5.522 HEAT:  43.66237
 CYCLE:   378 TIME:   0.078 TIME LEFT:  2.00D  GRAD.:    16.562 HEAT:  43.66006
 CYCLE:   379 TIME:   0.051 TIME LEFT:  2.00D  GRAD.:     6.354 HEAT:  43.62305
 CYCLE:   380 TIME:   0.047 TIME LEFT:  2.00D  GRAD.:     4.037 HEAT:  43.59431
 CYCLE:   381 TIME:   0.059 TIME LEFT:  2.00D  GRAD.:     5.189 HEAT:  43.56220
 CYCLE:   382 TIME:   0.059 TIME LEFT:  2.00D  GRAD.:     4.686 HEAT:  43.53217
 CYCLE:   383 TIME:   0.070 TIME LEFT:  2.00D  GRAD.:     5.190 HEAT:  43.50108
 CYCLE:   384 TIME:   0.059 TIME LEFT:  2.00D  GRAD.:    11.840 HEAT:  43.46877
 CYCLE:   385 TIME:   0.059 TIME LEFT:  2.00D  GRAD.:    15.499 HEAT:  43.45110
 CYCLE:   386 TIME:   0.055 TIME LEFT:  2.00D  GRAD.:     4.731 HEAT:  43.41536
 CYCLE:   387 TIME:   0.066 TIME LEFT:  2.00D  GRAD.:     8.352 HEAT:  43.42251
 CYCLE:   388 TIME:   0.059 TIME LEFT:  2.00D  GRAD.:     7.591 HEAT:  43.40152
 CYCLE:   389 TIME:   0.082 TIME LEFT:  2.00D  GRAD.:     7.997 HEAT:  43.38255
 CYCLE:   390 TIME:   0.078 TIME LEFT:  2.00D  GRAD.:     2.739 HEAT:  43.36305
 CYCLE:   391 TIME:   0.074 TIME LEFT:  2.00D  GRAD.:     2.792 HEAT:  43.35325
 CYCLE:   392 TIME:   0.062 TIME LEFT:  2.00D  GRAD.:     9.490 HEAT:  43.34327
 CYCLE:   393 TIME:   0.055 TIME LEFT:  2.00D  GRAD.:     5.494 HEAT:  43.31418
 CYCLE:   394 TIME:   0.074 TIME LEFT:  2.00D  GRAD.:     3.081 HEAT:  43.29038
 CYCLE:   395 TIME:   0.059 TIME LEFT:  2.00D  GRAD.:     4.151 HEAT:  43.26817
 CYCLE:   396 TIME:   0.059 TIME LEFT:  2.00D  GRAD.:     7.125 HEAT:  43.24083
 CYCLE:   397 TIME:   0.055 TIME LEFT:  2.00D  GRAD.:     5.010 HEAT:  43.20953
 CYCLE:   398 TIME:   0.070 TIME LEFT:  2.00D  GRAD.:     4.724 HEAT:  43.17695
 CYCLE:   399 TIME:   0.059 TIME LEFT:  2.00D  GRAD.:     8.028 HEAT:  43.13555
 CYCLE:   400 TIME:   0.043 TIME LEFT:  2.00D  GRAD.:    12.252 HEAT:  43.11114
 CYCLE:   401 TIME:   0.055 TIME LEFT:  2.00D  GRAD.:     6.239 HEAT:  43.07881
 CYCLE:   402 TIME:   0.051 TIME LEFT:  2.00D  GRAD.:     5.908 HEAT:  43.03900
 CYCLE:   403 TIME:   0.059 TIME LEFT:  2.00D  GRAD.:     9.451 HEAT:  43.01641
 CYCLE:   404 TIME:   0.059 TIME LEFT:  2.00D  GRAD.:     7.136 HEAT:  42.97994
 CYCLE:   405 TIME:   0.047 TIME LEFT:  2.00D  GRAD.:     5.317 HEAT:  42.94304
 CYCLE:   406 TIME:   0.051 TIME LEFT:  2.00D  GRAD.:     6.299 HEAT:  42.91576
 CYCLE:   407 TIME:   0.066 TIME LEFT:  2.00D  GRAD.:     7.976 HEAT:  42.86845
 CYCLE:   408 TIME:   0.066 TIME LEFT:  2.00D  GRAD.:     6.522 HEAT:  42.81437
 CYCLE:   409 TIME:   0.062 TIME LEFT:  2.00D  GRAD.:    17.145 HEAT:  42.80719
 CYCLE:   410 TIME:   0.070 TIME LEFT:  2.00D  GRAD.:     7.290 HEAT:  42.74867
 CYCLE:   411 TIME:   0.062 TIME LEFT:  2.00D  GRAD.:     4.131 HEAT:  42.71882
 CYCLE:   412 TIME:   0.047 TIME LEFT:  2.00D  GRAD.:     5.130 HEAT:  42.69366
 CYCLE:   413 TIME:   0.047 TIME LEFT:  2.00D  GRAD.:    16.733 HEAT:  42.69330
 CYCLE:   414 TIME:   0.078 TIME LEFT:  2.00D  GRAD.:     6.112 HEAT:  42.62910
 CYCLE:   415 TIME:   0.082 TIME LEFT:  2.00D  GRAD.:     3.758 HEAT:  42.60570
 CYCLE:   416 TIME:   0.066 TIME LEFT:  2.00D  GRAD.:     5.364 HEAT:  42.58453
 CYCLE:   417 TIME:   0.070 TIME LEFT:  2.00D  GRAD.:     7.670 HEAT:  42.56110
 CYCLE:   418 TIME:   0.059 TIME LEFT:  2.00D  GRAD.:    12.793 HEAT:  42.53503
 CYCLE:   419 TIME:   0.070 TIME LEFT:  2.00D  GRAD.:     5.526 HEAT:  42.49518
 CYCLE:   420 TIME:   0.047 TIME LEFT:  2.00D  GRAD.:     4.380 HEAT:  42.46836
 CYCLE:   421 TIME:   0.070 TIME LEFT:  2.00D  GRAD.:     5.413 HEAT:  42.44512
 CYCLE:   422 TIME:   0.051 TIME LEFT:  2.00D  GRAD.:    10.172 HEAT:  42.42044
 CYCLE:   423 TIME:   0.047 TIME LEFT:  2.00D  GRAD.:     5.171 HEAT:  42.38942
 CYCLE:   424 TIME:   0.059 TIME LEFT:  2.00D  GRAD.:     4.546 HEAT:  42.37001
 CYCLE:   425 TIME:   0.051 TIME LEFT:  2.00D  GRAD.:     6.527 HEAT:  42.34893
 CYCLE:   426 TIME:   0.059 TIME LEFT:  2.00D  GRAD.:     9.184 HEAT:  42.32971
 CYCLE:   427 TIME:   0.066 TIME LEFT:  2.00D  GRAD.:     4.784 HEAT:  42.30184
 CYCLE:   428 TIME:   0.059 TIME LEFT:  2.00D  GRAD.:     3.703 HEAT:  42.28810
 CYCLE:   429 TIME:   0.066 TIME LEFT:  2.00D  GRAD.:     3.707 HEAT:  42.27734
 CYCLE:   430 TIME:   0.051 TIME LEFT:  2.00D  GRAD.:     4.487 HEAT:  42.26513
 CYCLE:   431 TIME:   0.086 TIME LEFT:  2.00D  GRAD.:     6.514 HEAT:  42.26155
 CYCLE:   432 TIME:   0.082 TIME LEFT:  2.00D  GRAD.:     2.774 HEAT:  42.25300
 CYCLE:   433 TIME:   0.066 TIME LEFT:  2.00D  GRAD.:     2.194 HEAT:  42.24787
 CYCLE:   434 TIME:   0.078 TIME LEFT:  2.00D  GRAD.:     2.625 HEAT:  42.24185
 CYCLE:   435 TIME:   0.074 TIME LEFT:  2.00D  GRAD.:     4.309 HEAT:  42.23604
 CYCLE:   436 TIME:   0.066 TIME LEFT:  2.00D  GRAD.:     2.420 HEAT:  42.22938
 CYCLE:   437 TIME:   0.062 TIME LEFT:  2.00D  GRAD.:     2.015 HEAT:  42.22490
 CYCLE:   438 TIME:   0.059 TIME LEFT:  2.00D  GRAD.:     2.955 HEAT:  42.21951
 CYCLE:   439 TIME:   0.055 TIME LEFT:  2.00D  GRAD.:     3.775 HEAT:  42.21407
 CYCLE:   440 TIME:   0.055 TIME LEFT:  2.00D  GRAD.:     2.539 HEAT:  42.20845
 CYCLE:   441 TIME:   0.043 TIME LEFT:  2.00D  GRAD.:     2.455 HEAT:  42.20163
 CYCLE:   442 TIME:   0.055 TIME LEFT:  2.00D  GRAD.:     3.214 HEAT:  42.19663
 CYCLE:   443 TIME:   0.066 TIME LEFT:  2.00D  GRAD.:     2.788 HEAT:  42.18894
 CYCLE:   444 TIME:   0.066 TIME LEFT:  2.00D  GRAD.:     5.577 HEAT:  42.18044
 CYCLE:   445 TIME:   0.059 TIME LEFT:  2.00D  GRAD.:     2.764 HEAT:  42.17224
 CYCLE:   446 TIME:   0.062 TIME LEFT:  2.00D  GRAD.:     2.152 HEAT:  42.16858
 CYCLE:   447 TIME:   0.062 TIME LEFT:  2.00D  GRAD.:     2.914 HEAT:  42.16138
 CYCLE:   448 TIME:   0.090 TIME LEFT:  2.00D  GRAD.:     5.483 HEAT:  42.15781
 CYCLE:   449 TIME:   0.066 TIME LEFT:  2.00D  GRAD.:     2.466 HEAT:  42.15191
 CYCLE:   450 TIME:   0.070 TIME LEFT:  2.00D  GRAD.:     1.930 HEAT:  42.14743
 CYCLE:   451 TIME:   0.059 TIME LEFT:  2.00D  GRAD.:     1.995 HEAT:  42.14372
 CYCLE:   452 TIME:   0.090 TIME LEFT:  2.00D  GRAD.:     3.542 HEAT:  42.13622
 CYCLE:   453 TIME:   0.066 TIME LEFT:  2.00D  GRAD.:     5.431 HEAT:  42.13422
 CYCLE:   454 TIME:   0.070 TIME LEFT:  2.00D  GRAD.:     1.650 HEAT:  42.12819
 CYCLE:   455 TIME:   0.055 TIME LEFT:  2.00D  GRAD.:     1.423 HEAT:  42.12619
 CYCLE:   456 TIME:   0.059 TIME LEFT:  2.00D  GRAD.:     2.162 HEAT:  42.12234
 CYCLE:   457 TIME:   0.062 TIME LEFT:  2.00D  GRAD.:     4.154 HEAT:  42.11888
 CYCLE:   458 TIME:   0.074 TIME LEFT:  2.00D  GRAD.:     2.126 HEAT:  42.11425
 CYCLE:   459 TIME:   0.074 TIME LEFT:  2.00D  GRAD.:     1.659 HEAT:  42.11047
 CYCLE:   460 TIME:   0.062 TIME LEFT:  2.00D  GRAD.:     1.648 HEAT:  42.10764
 CYCLE:   461 TIME:   0.070 TIME LEFT:  2.00D  GRAD.:     3.695 HEAT:  42.10382
 CYCLE:   462 TIME:   0.078 TIME LEFT:  2.00D  GRAD.:     2.021 HEAT:  42.10050
 CYCLE:   463 TIME:   0.062 TIME LEFT:  2.00D  GRAD.:     1.570 HEAT:  42.09861
 CYCLE:   464 TIME:   0.066 TIME LEFT:  2.00D  GRAD.:     1.619 HEAT:  42.09457
 CYCLE:   465 TIME:   0.062 TIME LEFT:  2.00D  GRAD.:     4.288 HEAT:  42.09314
 CYCLE:   466 TIME:   0.047 TIME LEFT:  2.00D  GRAD.:     1.485 HEAT:  42.08931
 CYCLE:   467 TIME:   0.047 TIME LEFT:  2.00D  GRAD.:     1.317 HEAT:  42.08775
 CYCLE:   468 TIME:   0.055 TIME LEFT:  2.00D  GRAD.:     1.518 HEAT:  42.08490
 CYCLE:   469 TIME:   0.051 TIME LEFT:  2.00D  GRAD.:     4.239 HEAT:  42.08268
 CYCLE:   470 TIME:   0.074 TIME LEFT:  2.00D  GRAD.:     1.570 HEAT:  42.07887
 CYCLE:   471 TIME:   0.055 TIME LEFT:  2.00D  GRAD.:     1.370 HEAT:  42.07674
 CYCLE:   472 TIME:   0.070 TIME LEFT:  2.00D  GRAD.:     1.753 HEAT:  42.07357
 CYCLE:   473 TIME:   0.059 TIME LEFT:  2.00D  GRAD.:     2.826 HEAT:  42.06999
 CYCLE:   474 TIME:   0.086 TIME LEFT:  2.00D  GRAD.:     2.138 HEAT:  42.06595
 CYCLE:   475 TIME:   0.066 TIME LEFT:  2.00D  GRAD.:     1.459 HEAT:  42.06362
 CYCLE:   476 TIME:   0.062 TIME LEFT:  2.00D  GRAD.:     1.811 HEAT:  42.06147
 CYCLE:   477 TIME:   0.066 TIME LEFT:  2.00D  GRAD.:     2.099 HEAT:  42.05871
 CYCLE:   478 TIME:   0.070 TIME LEFT:  2.00D  GRAD.:     3.396 HEAT:  42.05544
 CYCLE:   479 TIME:   0.062 TIME LEFT:  2.00D  GRAD.:     1.566 HEAT:  42.05186
 CYCLE:   480 TIME:   0.062 TIME LEFT:  2.00D  GRAD.:     1.501 HEAT:  42.04987
 CYCLE:   481 TIME:   0.059 TIME LEFT:  2.00D  GRAD.:     2.006 HEAT:  42.04664
 CYCLE:   482 TIME:   0.059 TIME LEFT:  2.00D  GRAD.:     5.508 HEAT:  42.04579
 CYCLE:   483 TIME:   0.066 TIME LEFT:  2.00D  GRAD.:     1.895 HEAT:  42.04149
 CYCLE:   484 TIME:   0.070 TIME LEFT:  2.00D  GRAD.:     1.265 HEAT:  42.03975
 CYCLE:   485 TIME:   0.070 TIME LEFT:  2.00D  GRAD.:     1.525 HEAT:  42.03786
 CYCLE:   486 TIME:   0.062 TIME LEFT:  2.00D  GRAD.:     1.653 HEAT:  42.03493
 CYCLE:   487 TIME:   0.047 TIME LEFT:  2.00D  GRAD.:     5.401 HEAT:  42.03537
 CYCLE:   488 TIME:   0.055 TIME LEFT:  2.00D  GRAD.:     1.304 HEAT:  42.03063
 CYCLE:   489 TIME:   0.086 TIME LEFT:  2.00D  GRAD.:     0.858 HEAT:  42.02990

 -------------------------------------------------------------------------------
 PM7
 imine.mop



     HERBERTS TEST WAS SATISFIED IN BFGS                      
     SCF FIELD WAS ACHIEVED                                   


                              PM7 CALCULATION
                                                       MOPAC2016 (Version: 21.051W)
                                                       Thu May 20 13:43:11 2021
                                                       No. of days remaining = 276




          FINAL HEAT OF FORMATION =         42.02989 KCAL/MOL =     175.85308 KJ/MOL


          TOTAL ENERGY            =      -5309.11090 EV
          ELECTRONIC ENERGY       =     -59777.30181 EV  POINT GROUP:     C1  
          CORE-CORE REPULSION     =      54468.19091 EV
          COSMO AREA              =        443.74 SQUARE ANGSTROMS
          COSMO VOLUME            =        623.36 CUBIC ANGSTROMS

          GRADIENT NORM           =          0.85827 = 0.09910 PER ATOM
          IONIZATION POTENTIAL    =          6.721265 EV
          HOMO LUMO ENERGIES (EV) =         -6.721  0.355
          NO. OF FILLED LEVELS    =         94
          MOLECULAR WEIGHT        =        481.6796

          MOLECULAR DIMENSIONS (Angstroms)

            Atom       Atom       Distance
            H    73    H    44    13.84367
            H    24    H    41     9.92563
            H    31    H    61     7.13533


          SCF CALCULATIONS        =        490
 
          WALL-CLOCK TIME         =         30.730 SECONDS
          COMPUTATION TIME        =  2 MINUTES AND  2.844 SECONDS




   ATOM   CHEMICAL          X               Y               Z
  NUMBER   SYMBOL      (ANGSTROMS)     (ANGSTROMS)     (ANGSTROMS)
 
     1       C          3.94483590  *  -1.28637821  *  -2.88939667  *
     2       C          3.46390100  *  -0.66921100  *  -4.06715568  *
     3       N          2.23004419  *  -0.94600841  *  -4.60954173  *
     4       C          1.48668805  *  -1.86826059  *  -4.00329654  *
     5       C          1.86420500  *  -2.53389637  *  -2.82921143  *
     6       C          3.10241674  *  -2.26108239  *  -2.21780565  *
     7       C          5.21992801  *  -0.91580326  *  -2.39763332  *
     8       C          5.95741005  *   0.02873060  *  -3.06817969  *
     9       C          5.49218788  *   0.65020639  *  -4.25827355  *
    10       C          4.26447983  *   0.30120303  *  -4.74759176  *
    11       O          7.18574287  *   0.50353609  *  -2.69535658  *
    12       C          7.74677401  *  -0.04770071  *  -1.51492158  *
    13       C          3.50280268  *  -2.84396747  *  -1.01702554  *
    14       C          2.64063126  *  -3.70146936  *  -0.23873990  *
    15       N          1.77746459  *  -2.72925225  *   0.69681342  *
    16       C          3.34645433  *  -4.70193457  *   0.69859237  *
    17       C          2.73366636  *  -4.64894765  *   2.10751554  *
    18       C          2.65917782  *  -2.17056478  *   1.78257437  *
    19       C          3.08111950  *  -3.29029501  *   2.76488615  *
    20       C          4.53347263  *  -3.19610418  *   3.12314071  *
    21       C          5.14929750  *  -2.05050738  *   3.41339949  *
    22       C          1.19878352  *  -4.75680969  *   2.00912603  *
    23       C          0.64182771  *  -3.50021041  *   1.31132192  *
    24       H          0.52499916  *  -2.08764532  *  -4.48187691  *
    25       H          1.19956850  *  -3.27229844  *  -2.41187928  *
    26       H          5.59469912  *  -1.40287562  *  -1.50261433  *
    27       H          6.12324031  *   1.38800235  *  -4.74824479  *
    28       H          3.86175899  *   0.74138166  *  -5.66087896  *
    29       H          8.70965899  *   0.47269409  *  -1.44589221  *
    30       H          7.12407597  *   0.17887671  *  -0.64406448  *
    31       H          7.90473870  *  -1.12549225  *  -1.62232261  *
    32       H          4.49502170  *  -2.66639761  *  -0.64113267  *
    33       H          1.86599773  *  -4.23211180  *  -0.84795862  *
    34       H          4.43137361  *  -4.48438147  *   0.74435441  *
    35       H          3.27307695  *  -5.71827594  *   0.27306515  *
    36       H          3.12866742  *  -5.48310607  *   2.72582217  *
    37       H          2.13160841  *  -1.35368842  *   2.31216432  *
    38       H          3.55776639  *  -1.72742427  *   1.28357007  *
    39       H          2.49076735  *  -3.19342963  *   3.71168041  *
    40       H          5.06548349  *  -4.14774662  *   3.14963481  *
    41       H          6.19367883  *  -1.99372595  *   3.68250584  *
    42       H          4.67222220  *  -1.08330696  *   3.40968728  *
    43       H          0.75211174  *  -4.87524161  *   3.01125819  *
    44       H          0.92276864  *  -5.66889004  *   1.44825912  *
    45       H          0.09181283  *  -2.85348609  *   2.02525479  *
    46       H         -0.07700579  *  -3.77312600  *   0.50893098  *
    47       H          1.41241808  *  -1.92260995  *   0.08906767  *
    48       N          0.54276063  *  -0.41988480  *  -0.73444201  *
    49       C          1.29933040  *   0.54705623  *  -1.12846734  *
    50       C          0.98903947  *   1.46192189  *  -2.28272621  *
    51       C          2.59485770  *   0.80349370  *  -0.41251611  *
    52       C          2.18585255  *   2.34501799  *  -2.63498574  *
    53       H          0.10362458  *   2.08330668  *  -2.04565720  *
    54       H          0.71103306  *   0.85773931  *  -3.17913416  *
    55       C          2.76606683  *   2.29970026  *  -0.13956566  *
    56       H          2.66093668  *   0.23211086  *   0.53161549  *
    57       H          3.43056621  *   0.41797128  *  -1.04856072  *
    58       C          2.66078714  *   3.16130871  *  -1.41838061  *
    59       H          1.93110466  *   3.02500722  *  -3.46969488  *
    60       H          3.01589066  *   1.71374200  *  -3.02303869  *
    61       H          1.99851915  *   2.62942230  *   0.58624105  *
    62       H          3.73720512  *   2.47606213  *   0.36185066  *
    63       H          1.90042877  *   3.95896234  *  -1.22261802  *
    64       H         -0.31845408  *  -0.61264864  *  -1.22081991  *
    65       C          3.97882276  *   3.80163933  *  -1.76537926  *
    66       C          4.03414399  *   5.16866878  *  -2.04311533  *
    67       C          5.14357511  *   3.03597443  *  -1.84740785  *
    68       C          5.24315775  *   5.76045801  *  -2.40431476  *
    69       H          3.13422293  *   5.77545649  *  -1.98542062  *
    70       C          6.34861716  *   3.62658300  *  -2.21632963  *
    71       H          5.11013846  *   1.96558517  *  -1.64038989  *
    72       C          6.40111404  *   4.99102930  *  -2.49540778  *
    73       H          5.28027631  *   6.82513830  *  -2.62095893  *
    74       H          7.24548522  *   3.01222810  *  -2.29930878  *
    75       H          7.34067475  *   5.45162504  *  -2.78868349  *

                             CARTESIAN COORDINATES

   1    C        3.944835902    -1.286378212    -2.889396671
   2    C        3.463900996    -0.669211000    -4.067155676
   3    N        2.230044187    -0.946008412    -4.609541734
   4    C        1.486688048    -1.868260588    -4.003296543
   5    C        1.864204998    -2.533896368    -2.829211428
   6    C        3.102416738    -2.261082391    -2.217805650
   7    C        5.219928006    -0.915803260    -2.397633316
   8    C        5.957410047     0.028730597    -3.068179687
   9    C        5.492187884     0.650206385    -4.258273548
  10    C        4.264479826     0.301203026    -4.747591763
  11    O        7.185742869     0.503536094    -2.695356576
  12    C        7.746774010    -0.047700713    -1.514921581
  13    C        3.502802680    -2.843967475    -1.017025541
  14    C        2.640631264    -3.701469358    -0.238739904
  15    N        1.777464588    -2.729252249     0.696813422
  16    C        3.346454334    -4.701934569     0.698592371
  17    C        2.733666365    -4.648947652     2.107515544
  18    C        2.659177821    -2.170564781     1.782574372
  19    C        3.081119496    -3.290295013     2.764886149
  20    C        4.533472632    -3.196104178     3.123140705
  21    C        5.149297505    -2.050507384     3.413399490
  22    C        1.198783522    -4.756809692     2.009126027
  23    C        0.641827710    -3.500210413     1.311321919
  24    H        0.524999160    -2.087645324    -4.481876909
  25    H        1.199568497    -3.272298439    -2.411879276
  26    H        5.594699117    -1.402875617    -1.502614331
  27    H        6.123240311     1.388002350    -4.748244793
  28    H        3.861758992     0.741381662    -5.660878957
  29    H        8.709658986     0.472694094    -1.445892211
  30    H        7.124075971     0.178876713    -0.644064482
  31    H        7.904738704    -1.125492248    -1.622322614
  32    H        4.495021701    -2.666397615    -0.641132670
  33    H        1.865997730    -4.232111798    -0.847958620
  34    H        4.431373610    -4.484381471     0.744354407
  35    H        3.273076954    -5.718275940     0.273065149
  36    H        3.128667419    -5.483106066     2.725822171
  37    H        2.131608407    -1.353688418     2.312164322
  38    H        3.557766394    -1.727424267     1.283570074
  39    H        2.490767354    -3.193429634     3.711680411
  40    H        5.065483487    -4.147746617     3.149634809
  41    H        6.193678832    -1.993725945     3.682505838
  42    H        4.672222200    -1.083306958     3.409687283
  43    H        0.752111739    -4.875241606     3.011258185
  44    H        0.922768644    -5.668890035     1.448259119
  45    H        0.091812835    -2.853486090     2.025254792
  46    H       -0.077005786    -3.773126000     0.508930979
  47    H        1.412418078    -1.922609946     0.089067667
  48    N        0.542760629    -0.419884800    -0.734442005
  49    C        1.299330404     0.547056229    -1.128467340
  50    C        0.989039471     1.461921888    -2.282726206
  51    C        2.594857703     0.803493701    -0.412516113
  52    C        2.185852554     2.345017990    -2.634985741
  53    H        0.103624578     2.083306681    -2.045657198
  54    H        0.711033060     0.857739313    -3.179134159
  55    C        2.766066832     2.299700257    -0.139565664
  56    H        2.660936677     0.232110860     0.531615488
  57    H        3.430566213     0.417971278    -1.048560717
  58    C        2.660787140     3.161308715    -1.418380615
  59    H        1.931104656     3.025007223    -3.469694879
  60    H        3.015890657     1.713741996    -3.023038686
  61    H        1.998519150     2.629422301     0.586241048
  62    H        3.737205122     2.476062131     0.361850661
  63    H        1.900428774     3.958962340    -1.222618018
  64    H       -0.318454080    -0.612648637    -1.220819907
  65    C        3.978822756     3.801639330    -1.765379265
  66    C        4.034143990     5.168668784    -2.043115333
  67    C        5.143575111     3.035974425    -1.847407847
  68    C        5.243157750     5.760458008    -2.404314764
  69    H        3.134222933     5.775456486    -1.985420624
  70    C        6.348617161     3.626583002    -2.216329630
  71    H        5.110138461     1.965585173    -1.640389893
  72    C        6.401114039     4.991029300    -2.495407777
  73    H        5.280276314     6.825138299    -2.620958927
  74    H        7.245485218     3.012228097    -2.299308779
  75    H        7.340674747     5.451625044    -2.788683493


           Empirical Formula: C32 H39 N3 O  =    75 atoms



      MOLECULAR POINT GROUP   :   C1  


                  EIGENVALUES  
 -37.56070 -35.31250 -34.36162 -30.72251 -30.24507 -30.15089 -29.58750 -29.17228
 -28.36410 -28.10717 -26.79684 -26.39205 -26.18766 -25.81870 -25.47753 -25.17678
 -24.66946 -23.99619 -23.80850 -23.64299 -22.76063 -22.51576 -21.73315 -21.57222
 -21.08819 -20.72114 -20.57559 -20.41327 -19.95761 -19.53932 -18.96768 -18.69067
 -18.03026 -17.94016 -17.72679 -17.38189 -17.31480 -17.17557 -17.06150 -16.74320
 -16.05319 -15.91299 -15.81771 -15.51003 -15.34022 -15.23879 -15.09328 -14.95573
 -14.92045 -14.74838 -14.67806 -14.54361 -14.49538 -14.24703 -14.18549 -13.99406
 -13.92179 -13.83255 -13.76372 -13.67404 -13.61477 -13.58374 -13.45972 -13.24520
 -13.12352 -12.98602 -12.92920 -12.79284 -12.57489 -12.52153 -12.31720 -12.26702
 -12.10847 -12.09667 -12.00777 -11.85357 -11.77560 -11.75779 -11.66171 -11.25869
 -11.24176 -11.05100 -10.84245 -10.80918 -10.76912 -10.53408 -10.41079 -10.23034
  -9.47455  -9.22735  -9.12710  -8.88583  -8.27192  -6.72127   0.35519   0.45273
   0.55994   0.59676   0.82340   0.95391   1.14702   2.00873   2.33428   2.60913
   2.65922   2.73240   2.87715   2.93232   3.01476   3.40234   3.50275   3.52415
   3.71891   3.77674   3.80697   3.87933   3.91547   4.14747   4.18271   4.25838
   4.29788   4.39945   4.41337   4.53037   4.65715   4.70153   4.81582   4.83406
   4.91567   4.96995   5.00497   5.09335   5.12508   5.14606   5.19560   5.21811
   5.26725   5.33317   5.36533   5.42088   5.44358   5.49432   5.56820   5.57677
   5.61213   5.62695   5.63442   5.65708   5.68342   5.69903   5.73066   5.75440
   5.79795   5.81136   5.89464   5.96916   6.02422   6.04751   6.07289   6.11890
   6.20189   6.21242   6.28853   6.31513   6.33252   6.36483   6.43239   6.49378
   6.51927   6.54200   6.56772   6.62038   6.67062   6.77595   6.82055   6.85164
   6.90140   6.92392   6.93427   6.99008   7.24787   7.59753   7.93812


              NET ATOMIC CHARGES AND DIPOLE CONTRIBUTIONS

  ATOM NO.   TYPE          CHARGE      No. of ELECS.   s-Pop       p-Pop       
    1          C          -0.123929        4.1239     1.06503     3.05890
    2          C           0.154891        3.8451     1.06367     2.78144
    3          N          -0.495295        5.4953     1.75240     3.74290
    4          C           0.117976        3.8820     1.08967     2.79235
    5          C          -0.464791        4.4648     1.06310     3.40169
    6          C           0.235086        3.7649     1.06686     2.69806
    7          C          -0.260541        4.2605     1.07406     3.18648
    8          C           0.176666        3.8233     1.07855     2.74479
    9          C          -0.197723        4.1977     1.08019     3.11753
   10          C          -0.135803        4.1358     1.08742     3.04839
   11          O          -0.326705        6.3267     1.86868     4.45803
   12          C          -0.199860        4.1999     1.08392     3.11594
   13          C          -0.635333        4.6353     1.03758     3.59775
   14          C           0.156231        3.8438     1.08496     2.75881
   15          N          -0.212152        5.2122     1.58022     3.63193
   16          C          -0.324646        4.3246     1.07068     3.25397
   17          C          -0.102564        4.1026     1.06654     3.03603
   18          C          -0.149629        4.1496     1.08485     3.06478
   19          C          -0.150053        4.1501     1.06689     3.08317
   20          C          -0.130815        4.1308     1.09417     3.03665
   21          C          -0.326348        4.3263     1.09400     3.23235
   22          C          -0.304580        4.3046     1.06711     3.23747
   23          C          -0.155057        4.1551     1.07959     3.07547
   24          H           0.143683        0.8563     0.85632
   25          H           0.142977        0.8570     0.85702
   26          H           0.164384        0.8356     0.83562
   27          H           0.169213        0.8308     0.83079
   28          H           0.175172        0.8248     0.82483
   29          H           0.139757        0.8602     0.86024
   30          H           0.128653        0.8713     0.87135
   31          H           0.133144        0.8669     0.86686
   32          H           0.155498        0.8445     0.84450
   33          H           0.134042        0.8660     0.86596
   34          H           0.163965        0.8360     0.83603
   35          H           0.148847        0.8512     0.85115
   36          H           0.138181        0.8618     0.86182
   37          H           0.143309        0.8567     0.85669
   38          H           0.191673        0.8083     0.80833
   39          H           0.149486        0.8505     0.85051
   40          H           0.147225        0.8528     0.85277
   41          H           0.150289        0.8497     0.84971
   42          H           0.148210        0.8518     0.85179
   43          H           0.143454        0.8565     0.85655
   44          H           0.154286        0.8457     0.84571
   45          H           0.149110        0.8509     0.85089
   46          H           0.159979        0.8400     0.84002
   47          H           0.359726        0.6403     0.64027
   48          N          -0.668516        5.6685     1.72463     3.94388
   49          C           0.332688        3.6673     1.09766     2.56965
   50          C          -0.352894        4.3529     1.06649     3.28641
   51          C          -0.305155        4.3052     1.06133     3.24383
   52          C          -0.257360        4.2574     1.06123     3.19613
   53          H           0.156547        0.8435     0.84345
   54          H           0.185672        0.8143     0.81433
   55          C          -0.262292        4.2623     1.06123     3.20106
   56          H           0.144763        0.8552     0.85524
   57          H           0.193338        0.8067     0.80666
   58          C          -0.119506        4.1195     1.06214     3.05736
   59          H           0.148591        0.8514     0.85141
   60          H           0.171358        0.8286     0.82864
   61          H           0.134748        0.8653     0.86525
   62          H           0.147753        0.8522     0.85225
   63          H           0.136996        0.8630     0.86300
   64          H           0.269583        0.7304     0.73042
   65          C          -0.001995        4.0020     1.07594     2.92606
   66          C          -0.182964        4.1830     1.08276     3.10021
   67          C          -0.163183        4.1632     1.08553     3.07765
   68          C          -0.142599        4.1426     1.08236     3.06024
   69          H           0.145105        0.8549     0.85490
   70          C          -0.133182        4.1332     1.08619     3.04699
   71          H           0.165431        0.8346     0.83457
   72          C          -0.168114        4.1681     1.08156     3.08655
   73          H           0.142102        0.8579     0.85790
   74          H           0.158701        0.8413     0.84130
   75          H           0.145097        0.8549     0.85490
 DIPOLE           X         Y         Z       TOTAL
 POINT-CHG.    -2.706    -2.131    10.259    10.821
 HYBRID        -0.567     0.094     0.254     0.628
 SUM           -3.273    -2.037    10.512    11.197


          ATOMIC ORBITAL ELECTRON POPULATIONS

     Atom    s        px        py        pz   
    1  C   1.06503   0.99740   1.03947   1.02203
    2  C   1.06367   0.89962   0.95151   0.93031
    3  N   1.75240   1.12550   1.25312   1.36428
    4  C   1.08967   0.99159   0.87722   0.92354
    5  C   1.06310   1.09947   1.19264   1.10957
    6  C   1.06686   0.92322   0.86336   0.91148
    7  C   1.07406   1.02301   1.06432   1.09915
    8  C   1.07855   0.82696   0.96339   0.95444
    9  C   1.08019   1.03267   1.06701   1.01785
   10  C   1.08742   0.98324   1.00311   1.06203
   11  O   1.86868   1.37928   1.63185   1.44689
   12  C   1.08392   1.07660   1.11311   0.92623
   13  C   1.03758   1.13595   1.32983   1.13197
   14  C   1.08496   0.97135   0.89633   0.89113
   15  N   1.58022   1.17460   1.25842   1.19891
   16  C   1.07068   1.13295   1.11930   1.00171
   17  C   1.06654   0.97579   1.03017   1.03007
   18  C   1.08485   1.07123   1.02805   0.96550
   19  C   1.06689   1.02717   0.99710   1.05889
   20  C   1.09417   0.99337   1.06500   0.97828
   21  C   1.09400   1.12443   1.06782   1.04010
   22  C   1.06711   1.03604   1.06163   1.13980
   23  C   1.07959   0.95370   1.01819   1.10357
   24  H   0.85632
   25  H   0.85702
   26  H   0.83562
   27  H   0.83079
   28  H   0.82483
   29  H   0.86024
   30  H   0.87135
   31  H   0.86686
   32  H   0.84450
   33  H   0.86596
   34  H   0.83603
   35  H   0.85115
   36  H   0.86182
   37  H   0.85669
   38  H   0.80833
   39  H   0.85051
   40  H   0.85277
   41  H   0.84971
   42  H   0.85179
   43  H   0.85655
   44  H   0.84571
   45  H   0.85089
   46  H   0.84002
   47  H   0.64027
   48  N   1.72463   1.22340   1.29130   1.42919
   49  C   1.09766   0.88861   0.82180   0.85923
   50  C   1.06649   1.09247   1.09803   1.09591
   51  C   1.06133   1.06550   1.03939   1.13894
   52  C   1.06123   1.06536   1.08350   1.04727
   53  H   0.84345
   54  H   0.81433
   55  C   1.06123   1.16530   0.98255   1.05322
   56  H   0.85524
   57  H   0.80666
   58  C   1.06214   1.02520   1.04633   0.98583
   59  H   0.85141
   60  H   0.82864
   61  H   0.86525
   62  H   0.85225
   63  H   0.86300
   64  H   0.73042
   65  C   1.07594   0.97746   0.97528   0.97332
   66  C   1.08276   1.05153   1.01915   1.02953
   67  C   1.08553   0.98239   1.08419   1.01108
   68  C   1.08236   0.98905   1.07058   1.00061
   69  H   0.85490
   70  C   1.08619   1.05570   1.01037   0.98092
   71  H   0.83457
   72  C   1.08156   1.05318   1.01012   1.02325
   73  H   0.85790
   74  H   0.84130
   75  H   0.85490

 **********************
 *                    *
 * JOB ENDED NORMALLY *
 *                    *
 **********************



 TOTAL JOB TIME:            30.74 SECONDS

 == MOPAC DONE ==
