16
	Energy:      47.7654484
H          4.44929        2.15318        4.17977
H          4.06257        4.31187        5.38252
H          3.04527       -0.11084        2.87103
C          3.44503        2.51544        4.35698
C          3.22082        3.72854        5.03270
C          2.24050        0.52834        3.20897
C          2.33444        1.79533        3.92327
C          1.90542        4.19040        5.25773
C          0.79538        0.32784        3.05836
C          1.04950        2.24561        4.14255
H          1.74578        5.12535        5.77888
O          0.26868       -0.62592        2.50865
C          0.80079        3.44390        4.80932
N          0.10370        1.34671        3.61264
H         -0.21079        3.78976        4.97712
H         -0.92188        1.44409        3.64041
