 *******************************************************************************
 ** Site#: 36969        For non-commercial use only    Version 21.051W 64BITS **
 *******************************************************************************
 ** Cite this program as: MOPAC2016, Version: 21.051W, James J. P. Stewart,   **
 ** Stewart Computational Chemistry, web: HTTP://OpenMOPAC.net. Days left: 293**
 *******************************************************************************
 **                                                                           **
 **                                MOPAC2016                                  **
 **                                                                           **
 *******************************************************************************

                              PM7 CALCULATION RESULTS

 *******************************************************************************
 *  CALCULATION DONE:                                Mon May  3 16:03:24 2021  *
 *  PM7        - The PM7 Hamiltonian to be used
 *  GEO-OK     - OVERRIDE INTERATOMIC DISTANCE AND OTHER SAFETY CHECKS
 *  1SCF       - DO 1 SCF AND THEN STOP 
 *  T=         - A TIME OF 172800.0 SECONDS REQUESTED
 *  DUMP=N     - RESTART FILE WRITTEN EVERY 7200.0 SECONDS REQUESTED
 *  RELSCF     - DEFAULT SCF CRITERION MULTIPLIED BY 0.0001
 *              (DEFAULT SCF CRITERION = 0.00010)
 *  GRADIENTS  - ALL GRADIENTS TO BE PRINTED
 *******************************************************************************
PM7 GEO-OK 1SCF GRADIENTS RELSCF=0.0001
 Title: ASE calculation

   ATOM   CHEMICAL          X               Y               Z
  NUMBER   SYMBOL      (ANGSTROMS)     (ANGSTROMS)     (ANGSTROMS)
 
     1       C          0.21757396  *   0.10402086  *  -1.63301042  *
     2       H         -0.58825752  *   0.79644467  *  -1.83418930  *
     3       C         -0.34305357  *  -1.22151090  *  -1.41876512  *
     4       H         -0.38339037  *  -1.94866720  *  -2.10256693  *
     5       C         -0.80946774  *  -1.52279965  *  -0.48599256  *
     6       H         -1.27438060  *  -2.48511998  *  -0.40837762  *
     7       C         -0.72277806  *  -0.65627690  *   0.51191875  *
     8       H         -0.74761999  *  -0.49649010  *   0.45714633  *
     9       H         -0.84855368  *  -0.65179527  *   0.63535538  *
    10       C          1.17126016  *   0.10787574  *  -2.82519010  *
    11       H          1.61807497  *   1.06746383  *  -2.96561638  *
    12       H          1.96086358  *  -0.59582725  *  -2.69656106  *
    13       H          0.67739173  *  -0.13953983  *  -3.75091338  *
    14       C          1.31349426  *   2.34546654  *   1.14321448  *
    15       C          0.39761829  *   2.71712350  *   1.15319279  *
    16       C         -0.29801502  *   1.96626207  *   0.83439104  *
    17       C          1.52071575  *   1.23730600  *   0.89489903  *
    18       C         -0.32010030  *   0.51525807  *   0.53737261  *
    19       C          0.82530440  *   0.03699798  *   0.58371906  *
    20       H          1.92556223  *   3.12825615  *   1.37247307  *
    21       H          0.29767030  *   3.74717307  *   1.46901621  *
    22       H         -0.94252187  *   2.37572689  *   0.85079398  *
    23       H          2.28401056  *   1.15835843  *   0.91320683  *
    24       H         -0.06427456  *  -0.02029152  *   1.11369437  *
    25       H          1.06182380  *  -0.46698385  *   0.89685191  *
    26       C          0.07865277  *   0.08765850  *   0.83791518  *
    27       O         -0.10338628  *  -0.23518203  *   1.28356303  *
 


          CARTESIAN COORDINATES 

    NO.       ATOM           X           Y           Z

     1         C          0.2176      0.1040     -1.6330
     2         H         -0.5883      0.7964     -1.8342
     3         C         -0.3431     -1.2215     -1.4188
     4         H         -0.3834     -1.9487     -2.1026
     5         C         -0.8095     -1.5228     -0.4860
     6         H         -1.2744     -2.4851     -0.4084
     7         C         -0.7228     -0.6563      0.5119
     8         H         -0.7476     -0.4965      0.4571
     9         H         -0.8486     -0.6518      0.6354
    10         C          1.1713      0.1079     -2.8252
    11         H          1.6181      1.0675     -2.9656
    12         H          1.9609     -0.5958     -2.6966
    13         H          0.6774     -0.1395     -3.7509
    14         C          1.3135      2.3455      1.1432
    15         C          0.3976      2.7171      1.1532
    16         C         -0.2980      1.9663      0.8344
    17         C          1.5207      1.2373      0.8949
    18         C         -0.3201      0.5153      0.5374
    19         C          0.8253      0.0370      0.5837
    20         H          1.9256      3.1283      1.3725
    21         H          0.2977      3.7472      1.4690
    22         H         -0.9425      2.3757      0.8508
    23         H          2.2840      1.1584      0.9132
    24         H         -0.0643     -0.0203      1.1137
    25         H          1.0618     -0.4670      0.8969
    26         C          0.0787      0.0877      0.8379
    27         O         -0.1034     -0.2352      1.2836

 General Reference for PM7:
 "Optimization of Parameters for Semiempirical Methods VI: More Modifications to the 
 NDDO Approximations and Re-optimization of Parameters", J. J. P. Stewart, J. Mol. Mod., 1:32, 19 (2013)
 https://link.springer.com/article/10.1007/s00894-012-1667-x

           Empirical Formula: C12 H14 O  =    27 atoms



      MOLECULAR POINT GROUP   :   C1  


      RHF CALCULATION, NO. OF DOUBLY OCCUPIED LEVELS = 34

  SCF CRITERION =    0.1000E-07


 ALL CONVERGERS ARE NOW FORCED ON
 SHIFT=10, PULAY ON, CAMP-KING ON
 AND ITERATION COUNTER RESET



 -------------------------------------------------------------------------------
 PM7 GEO-OK 1SCF GRADIENTS RELSCF=0.0001
 Title: ASE calculation



     1SCF WAS SPECIFIED, SO BFGS WAS NOT USED                 
     SCF FIELD WAS ACHIEVED                                   


                              PM7 CALCULATION
                                                       MOPAC2016 (Version: 21.051W)
                                                       Mon May  3 16:03:26 2021
                                                       No. of days remaining = 293




          FINAL HEAT OF FORMATION =    5278962.96958 KCAL/MOL =22087181.06473 KJ/MOL


          Calculated Heat of Formation is very large, re-run using keyword 'CHECK'




          TOTAL ENERGY            =     226960.88609 EV
          ELECTRONIC ENERGY       =     -14322.34697 EV  POINT GROUP:     C1  
          CORE-CORE REPULSION     =     241283.23306 EV
          COSMO AREA              =        174.15 SQUARE ANGSTROMS
          COSMO VOLUME            =        179.61 CUBIC ANGSTROMS

          GRADIENT NORM           =   36591708.30347 = 7042077.83432 PER ATOM
          IONIZATION POTENTIAL    =          7.385815 EV
          HOMO LUMO ENERGIES (EV) =         -7.386 -1.331
          NO. OF FILLED LEVELS    =         34
          MOLECULAR WEIGHT        =        174.2420

          MOLECULAR DIMENSIONS (Angstroms)

            Atom       Atom       Distance
            H    21    H     4     6.75741
            H    11    H     6     4.87696
            H    23    H     2     3.41451


          SCF CALCULATIONS        =          1
 
          WALL-CLOCK TIME         =          2.187 SECONDS
          COMPUTATION TIME        =          8.344 SECONDS

          LARGEST ATOMIC GRADIENTS

          Atom     Label                     Cartesian Gradients           Cartesian Coordinates       |Gradient|
                                           X          Y          Z        X          Y          Z

             9       H              210341.231 322804.402-368789.142   -0.84855   -0.65180    0.63536 533339.992
             8       H             -208653.367-322275.289 369003.700   -0.74762   -0.49649    0.45715 532504.760
            18       C                7732.407  -9722.376   6327.180   -0.32010    0.51526    0.53737  13940.872
            19       C               -5852.544   -112.458   2337.498    0.82530    0.03700    0.58372   6303.079
             7       C                1535.004   1945.456   1094.640   -0.72278   -0.65628    0.51192   2709.109
            15       C                 912.540  -1339.195   -321.254    0.39762    2.71712    1.15319   1652.083
            14       C               -1524.196     50.578   -127.052    1.31349    2.34547    1.14321   1530.319
            25       H                -793.622    707.250   -195.247    1.06182   -0.46698    0.89685   1080.814
            16       C                 790.338    542.182    296.136   -0.29802    1.96626    0.83439   1003.141
             3       C                -370.526   -220.363    777.429   -0.34305   -1.22151   -1.41877    888.957
             5       C                 379.803    618.181   -347.390   -0.80947   -1.52280   -0.48599    804.411
            17       C                -352.930    368.731    109.242    1.52072    1.23731    0.89490    521.973
            22       H                 373.411    -93.365     38.822   -0.94252    2.37573    0.85079    386.859
            23       H                -334.015     94.900      5.572    2.28401    1.15836    0.91321    347.280
            20       H                -141.921    -56.096    -23.356    1.92556    3.12826    1.37247    154.382
             1       C                 -28.863     22.170    114.579    0.21757    0.10402   -1.63301    120.220
             4       H                 -22.332     42.240    104.630   -0.38339   -1.94867   -2.10257    115.023
            21       H                  47.864    -72.233    -13.167    0.29767    3.74717    1.46902     87.646
             6       H                  29.787     40.095    -31.346   -1.27438   -2.48512   -0.40838     58.970
             2       H                  -0.644    -34.835    -28.046   -0.58826    0.79644   -1.83419     44.727



       FINAL  POINT  AND  DERIVATIVES

   PARAMETER     ATOM    TYPE            VALUE        GRADIENT
      1          1  C    CARTESIAN X     0.217574    -28.862959  KCAL/ANGSTROM
      2          1  C    CARTESIAN Y     0.104021     22.169984  KCAL/ANGSTROM
      3          1  C    CARTESIAN Z    -1.633010    114.578568  KCAL/ANGSTROM
      4          2  H    CARTESIAN X    -0.588258     -0.643980  KCAL/ANGSTROM
      5          2  H    CARTESIAN Y     0.796445    -34.835189  KCAL/ANGSTROM
      6          2  H    CARTESIAN Z    -1.834189    -28.045722  KCAL/ANGSTROM
      7          3  C    CARTESIAN X    -0.343054   -370.525686  KCAL/ANGSTROM
      8          3  C    CARTESIAN Y    -1.221511   -220.362736  KCAL/ANGSTROM
      9          3  C    CARTESIAN Z    -1.418765    777.428506  KCAL/ANGSTROM
     10          4  H    CARTESIAN X    -0.383390    -22.332225  KCAL/ANGSTROM
     11          4  H    CARTESIAN Y    -1.948667     42.239909  KCAL/ANGSTROM
     12          4  H    CARTESIAN Z    -2.102567    104.629790  KCAL/ANGSTROM
     13          5  C    CARTESIAN X    -0.809468    379.802797  KCAL/ANGSTROM
     14          5  C    CARTESIAN Y    -1.522800    618.181198  KCAL/ANGSTROM
     15          5  C    CARTESIAN Z    -0.485993   -347.389806  KCAL/ANGSTROM
     16          6  H    CARTESIAN X    -1.274381     29.786651  KCAL/ANGSTROM
     17          6  H    CARTESIAN Y    -2.485120     40.095371  KCAL/ANGSTROM
     18          6  H    CARTESIAN Z    -0.408378    -31.345626  KCAL/ANGSTROM
     19          7  C    CARTESIAN X    -0.722778   1535.003535  KCAL/ANGSTROM
     20          7  C    CARTESIAN Y    -0.656277   1945.456104  KCAL/ANGSTROM
     21          7  C    CARTESIAN Z     0.511919   1094.640147  KCAL/ANGSTROM
     22          8  H    CARTESIAN X    -0.747620-208653.366702  KCAL/ANGSTROM
     23          8  H    CARTESIAN Y    -0.496490-322275.289124  KCAL/ANGSTROM
     24          8  H    CARTESIAN Z     0.457146 369003.699710  KCAL/ANGSTROM
     25          9  H    CARTESIAN X    -0.848554 210341.230999  KCAL/ANGSTROM
     26          9  H    CARTESIAN Y    -0.651795 322804.402270  KCAL/ANGSTROM
     27          9  H    CARTESIAN Z     0.635355-368789.141911  KCAL/ANGSTROM
     28         10  C    CARTESIAN X     1.171260     -0.193143  KCAL/ANGSTROM
     29         10  C    CARTESIAN Y     0.107876    -10.367021  KCAL/ANGSTROM
     30         10  C    CARTESIAN Z    -2.825190    -41.705658  KCAL/ANGSTROM
     31         11  H    CARTESIAN X     1.618075     -9.768704  KCAL/ANGSTROM
     32         11  H    CARTESIAN Y     1.067464    -18.705643  KCAL/ANGSTROM
     33         11  H    CARTESIAN Z    -2.965616      1.953094  KCAL/ANGSTROM
     34         12  H    CARTESIAN X     1.960864    -17.773770  KCAL/ANGSTROM
     35         12  H    CARTESIAN Y    -0.595827     14.316231  KCAL/ANGSTROM
     36         12  H    CARTESIAN Z    -2.696561     -2.682792  KCAL/ANGSTROM
     37         13  H    CARTESIAN X     0.677392     11.625067  KCAL/ANGSTROM
     38         13  H    CARTESIAN Y    -0.139540      3.543251  KCAL/ANGSTROM
     39         13  H    CARTESIAN Z    -3.750913      7.896117  KCAL/ANGSTROM
     40         14  C    CARTESIAN X     1.313494  -1524.196483  KCAL/ANGSTROM
     41         14  C    CARTESIAN Y     2.345467     50.577857  KCAL/ANGSTROM
     42         14  C    CARTESIAN Z     1.143214   -127.052455  KCAL/ANGSTROM
     43         15  C    CARTESIAN X     0.397618    912.539839  KCAL/ANGSTROM
     44         15  C    CARTESIAN Y     2.717123  -1339.195239  KCAL/ANGSTROM
     45         15  C    CARTESIAN Z     1.153193   -321.254299  KCAL/ANGSTROM
     46         16  C    CARTESIAN X    -0.298015    790.337760  KCAL/ANGSTROM
     47         16  C    CARTESIAN Y     1.966262    542.181826  KCAL/ANGSTROM
     48         16  C    CARTESIAN Z     0.834391    296.135897  KCAL/ANGSTROM
     49         17  C    CARTESIAN X     1.520716   -352.929881  KCAL/ANGSTROM
     50         17  C    CARTESIAN Y     1.237306    368.730688  KCAL/ANGSTROM
     51         17  C    CARTESIAN Z     0.894899    109.241883  KCAL/ANGSTROM
     52         18  C    CARTESIAN X    -0.320100   7732.406592  KCAL/ANGSTROM
     53         18  C    CARTESIAN Y     0.515258  -9722.375873  KCAL/ANGSTROM
     54         18  C    CARTESIAN Z     0.537373   6327.180077  KCAL/ANGSTROM
     55         19  C    CARTESIAN X     0.825304  -5852.543838  KCAL/ANGSTROM
     56         19  C    CARTESIAN Y     0.036998   -112.458425  KCAL/ANGSTROM
     57         19  C    CARTESIAN Z     0.583719   2337.497508  KCAL/ANGSTROM
     58         20  H    CARTESIAN X     1.925562   -141.921430  KCAL/ANGSTROM
     59         20  H    CARTESIAN Y     3.128256    -56.095544  KCAL/ANGSTROM
     60         20  H    CARTESIAN Z     1.372473    -23.356446  KCAL/ANGSTROM
     61         21  H    CARTESIAN X     0.297670     47.864123  KCAL/ANGSTROM
     62         21  H    CARTESIAN Y     3.747173    -72.232625  KCAL/ANGSTROM
     63         21  H    CARTESIAN Z     1.469016    -13.167052  KCAL/ANGSTROM
     64         22  H    CARTESIAN X    -0.942522    373.410572  KCAL/ANGSTROM
     65         22  H    CARTESIAN Y     2.375727    -93.364791  KCAL/ANGSTROM
     66         22  H    CARTESIAN Z     0.850794     38.821776  KCAL/ANGSTROM
     67         23  H    CARTESIAN X     2.284011   -334.015272  KCAL/ANGSTROM
     68         23  H    CARTESIAN Y     1.158358     94.899639  KCAL/ANGSTROM
     69         23  H    CARTESIAN Z     0.913207      5.572163  KCAL/ANGSTROM
     70         24  H    CARTESIAN X    -0.064275**************  KCAL/ANGSTROM
     71         24  H    CARTESIAN Y    -0.020292**************  KCAL/ANGSTROM
     72         24  H    CARTESIAN Z     1.113694**************  KCAL/ANGSTROM
     73         25  H    CARTESIAN X     1.061824   -793.621689  KCAL/ANGSTROM
     74         25  H    CARTESIAN Y    -0.466984    707.250077  KCAL/ANGSTROM
     75         25  H    CARTESIAN Z     0.896852   -195.247198  KCAL/ANGSTROM
     76         26  C    CARTESIAN X     0.078653-586218.541152  KCAL/ANGSTROM
     77         26  C    CARTESIAN Y     0.087658-445808.250454  KCAL/ANGSTROM
     78         26  C    CARTESIAN Z     0.8379151125975.979311  KCAL/ANGSTROM
     79         27  O    CARTESIAN X    -0.1033863737522.777396  KCAL/ANGSTROM
     80         27  O    CARTESIAN Y    -0.235182**************  KCAL/ANGSTROM
     81         27  O    CARTESIAN Z     1.283563**************  KCAL/ANGSTROM




   ATOM   CHEMICAL          X               Y               Z
  NUMBER   SYMBOL      (ANGSTROMS)     (ANGSTROMS)     (ANGSTROMS)
 
     1       C          0.21757396  *   0.10402086  *  -1.63301042  *
     2       H         -0.58825752  *   0.79644467  *  -1.83418930  *
     3       C         -0.34305357  *  -1.22151090  *  -1.41876512  *
     4       H         -0.38339037  *  -1.94866720  *  -2.10256693  *
     5       C         -0.80946774  *  -1.52279965  *  -0.48599256  *
     6       H         -1.27438060  *  -2.48511998  *  -0.40837762  *
     7       C         -0.72277806  *  -0.65627690  *   0.51191875  *
     8       H         -0.74761999  *  -0.49649010  *   0.45714633  *
     9       H         -0.84855368  *  -0.65179527  *   0.63535538  *
    10       C          1.17126016  *   0.10787574  *  -2.82519010  *
    11       H          1.61807497  *   1.06746383  *  -2.96561638  *
    12       H          1.96086358  *  -0.59582725  *  -2.69656106  *
    13       H          0.67739173  *  -0.13953983  *  -3.75091338  *
    14       C          1.31349426  *   2.34546654  *   1.14321448  *
    15       C          0.39761829  *   2.71712350  *   1.15319279  *
    16       C         -0.29801502  *   1.96626207  *   0.83439104  *
    17       C          1.52071575  *   1.23730600  *   0.89489903  *
    18       C         -0.32010030  *   0.51525807  *   0.53737261  *
    19       C          0.82530440  *   0.03699798  *   0.58371906  *
    20       H          1.92556223  *   3.12825615  *   1.37247307  *
    21       H          0.29767030  *   3.74717307  *   1.46901621  *
    22       H         -0.94252187  *   2.37572689  *   0.85079398  *
    23       H          2.28401056  *   1.15835843  *   0.91320683  *
    24       H         -0.06427456  *  -0.02029152  *   1.11369437  *
    25       H          1.06182380  *  -0.46698385  *   0.89685191  *
    26       C          0.07865277  *   0.08765850  *   0.83791518  *
    27       O         -0.10338628  *  -0.23518203  *   1.28356303  *

                             CARTESIAN COORDINATES

   1    C        0.217573965     0.104020859    -1.633010423
   2    H       -0.588257515     0.796444671    -1.834189298
   3    C       -0.343053570    -1.221510900    -1.418765124
   4    H       -0.383390371    -1.948667200    -2.102566932
   5    C       -0.809467745    -1.522799651    -0.485992563
   6    H       -1.274380597    -2.485119976    -0.408377617
   7    C       -0.722778064    -0.656276903     0.511918753
   8    H       -0.747619985    -0.496490104     0.457146332
   9    H       -0.848553683    -0.651795271     0.635355378
  10    C        1.171260157     0.107875739    -2.825190101
  11    H        1.618074968     1.067463835    -2.965616384
  12    H        1.960863575    -0.595827248    -2.696561058
  13    H        0.677391731    -0.139539831    -3.750913381
  14    C        1.313494257     2.345466536     1.143214476
  15    C        0.397618285     2.717123499     1.153192791
  16    C       -0.298015019     1.966262070     0.834391036
  17    C        1.520715750     1.237305999     0.894899027
  18    C       -0.320100300     0.515258069     0.537372606
  19    C        0.825304399     0.036997976     0.583719064
  20    H        1.925562231     3.128256146     1.372473067
  21    H        0.297670298     3.747173065     1.469016208
  22    H       -0.942521869     2.375726888     0.850793984
  23    H        2.284010564     1.158358429     0.913206831
  24    H       -0.064274558    -0.020291516     1.113694372
  25    H        1.061823804    -0.466983852     0.896851915
  26    C        0.078652768     0.087658499     0.837915176
  27    O       -0.103386285    -0.235182032     1.283563025


           Empirical Formula: C12 H14 O  =    27 atoms



      MOLECULAR POINT GROUP   :   C1  


                  EIGENVALUES  
 -82.65010 -46.74775 -43.35768 -38.54847 -34.84325 -31.27802 -28.83329 -28.18387
 -25.71249 -23.46944 -22.20953 -20.36889 -19.50726 -18.22775 -17.52322 -17.22368
 -16.72879 -16.24894 -15.54704 -14.90316 -14.46697 -13.57776 -13.46139 -12.95019
 -12.74332 -12.47283 -11.88788 -11.78154 -11.43789 -10.60501 -10.12856  -9.75982
  -8.46716  -7.38582  -1.33140   0.47281   0.79135   1.45256   1.95507   2.28528
   2.91767   3.14149   3.35843   3.41976   3.71317   4.30045   4.67390   4.78650
   4.82359   4.96090   5.17859   5.27373   5.38573   5.41770   5.55989   6.30281
   6.32339   6.39154   6.54175   6.81243   7.65041   7.90372   8.17384   8.48969
   8.82054  14.09184


              NET ATOMIC CHARGES AND DIPOLE CONTRIBUTIONS

  ATOM NO.   TYPE          CHARGE      No. of ELECS.   s-Pop       p-Pop       
    1          C           0.370590        3.6294     1.13831     2.49110
    2          H           0.158661        0.8413     0.84134
    3          C          -0.316651        4.3167     1.01681     3.29984
    4          H           0.185487        0.8145     0.81451
    5          C           0.101690        3.8983     0.98330     2.91501
    6          H           0.169755        0.8302     0.83025
    7          C          -0.926783        4.9268     0.69538     4.23140
    8          H           0.298092        0.7019     0.70191
    9          H           0.259496        0.7405     0.74050
   10          C          -0.522242        4.5222     1.05365     3.46860
   11          H           0.170646        0.8294     0.82935
   12          H           0.176559        0.8234     0.82344
   13          H           0.180530        0.8195     0.81947
   14          C          -0.198531        4.1985     0.91557     3.28296
   15          C          -0.288586        4.2886     0.91018     3.37841
   16          C           0.068782        3.9312     0.92598     3.00524
   17          C          -0.114916        4.1149     0.95040     3.16451
   18          C          -0.445041        4.4450     0.70545     3.73959
   19          C          -0.447073        4.4471     0.76383     3.68324
   20          H           0.181894        0.8181     0.81811
   21          H           0.200611        0.7994     0.79939
   22          H           0.120155        0.8798     0.87984
   23          H           0.117418        0.8826     0.88258
   24          H          -0.615165        1.6152     1.61516
   25          H           0.163109        0.8369     0.83689
   26          C           0.030363        3.9696     0.77833     3.19130
   27          O           0.921148        5.0789     1.06625     4.01260
 DIPOLE           X         Y         Z       TOTAL
 POINT-CHG.    -0.128    -0.663    -4.781     4.829
 HYBRID         0.146     0.096     0.486     0.517
 SUM            0.018    -0.567    -4.295     4.332


          ATOMIC ORBITAL ELECTRON POPULATIONS

     Atom    s        px        py        pz   
    1  C   1.13831   0.88249   0.96794   0.64067
    2  H   0.84134
    3  C   1.01681   1.07278   1.07058   1.15648
    4  H   0.81451
    5  C   0.98330   0.97231   1.00458   0.93812
    6  H   0.83025
    7  C   0.69538   1.74780   1.24779   1.23581
    8  H   0.70191
    9  H   0.74050
   10  C   1.05365   1.17058   1.21428   1.08374
   11  H   0.82935
   12  H   0.82344
   13  H   0.81947
   14  C   0.91557   1.18618   1.06402   1.03276
   15  C   0.91018   1.15293   1.13816   1.08732
   16  C   0.92598   1.16816   0.90900   0.92807
   17  C   0.95040   1.12755   1.00337   1.03359
   18  C   0.70545   1.06422   1.13767   1.53770
   19  C   0.76383   1.19910   1.13366   1.35049
   20  H   0.81811
   21  H   0.79939
   22  H   0.87984
   23  H   0.88258
   24  H   1.61516
   25  H   0.83689
   26  C   0.77833   1.19194   0.99144   1.00791
   27  O   1.06625   1.05947   1.20428   1.74885

 **********************
 *                    *
 * JOB ENDED NORMALLY *
 *                    *
 **********************



 TOTAL JOB TIME:             2.20 SECONDS

 == MOPAC DONE ==
