 *******************************************************************************
 ** Site#: 36969        For non-commercial use only    Version 21.051W 64BITS **
 *******************************************************************************
 ** Cite this program as: MOPAC2016, Version: 21.051W, James J. P. Stewart,   **
 ** Stewart Computational Chemistry, web: HTTP://OpenMOPAC.net. Days left: 293**
 *******************************************************************************
 **                                                                           **
 **                                MOPAC2016                                  **
 **                                                                           **
 *******************************************************************************

                              PM7 CALCULATION RESULTS

 *******************************************************************************
 *  CALCULATION DONE:                                Mon May  3 16:20:20 2021  *
 *  PM7        - The PM7 Hamiltonian to be used
 *  FORCE      - FORCE CALCULATION SPECIFIED
 *  T=         - A TIME OF 172800.0 SECONDS REQUESTED
 *  DUMP=N     - RESTART FILE WRITTEN EVERY 7200.0 SECONDS REQUESTED
 *******************************************************************************
PM7 FORCE
 structure_1_MEP_image_4

   ATOM   CHEMICAL          X               Y               Z
  NUMBER   SYMBOL      (ANGSTROMS)     (ANGSTROMS)     (ANGSTROMS)
 
     1       C         -1.56018000  *  -1.44400000  *  -0.06357000  *
     2       H         -1.09175000  *  -1.21818000  *  -1.02251000  *
     3       C         -0.84349000  *  -1.79919000  *   1.01278000  *
     4       H         -1.34201000  *  -2.05571000  *   1.94808000  *
     5       C          0.60968000  *  -1.88933000  *   1.04286000  *
     6       H          1.02604000  *  -2.23477000  *   1.99294000  *
     7       C          1.42246000  *  -1.58293000  *   0.02722000  *
     8       H          1.08369000  *  -1.22586000  *  -0.93444000  *
     9       H          2.49562000  *  -1.66948000  *   0.08227000  *
    10       C         -3.04487000  *  -1.33800000  *  -0.04507000  *
    11       H         -3.40874000  *  -0.58639000  *  -0.75964000  *
    12       H         -3.50847000  *  -2.29521000  *  -0.32792000  *
    13       H         -3.43776000  *  -1.07058000  *   0.94451000  *
    14       C          0.74007000  *   1.56688000  *   2.43811000  *
    15       C         -0.60672000  *   1.64236000  *   2.43227000  *
    16       C         -1.50532000  *   1.64154000  *   1.31095000  *
    17       C          1.64183000  *   1.45828000  *   1.32366000  *
    18       C         -1.22369000  *   1.57078000  *  -0.00113000  *
    19       C          1.36560000  *   1.41410000  *   0.00972000  *
    20       H          1.24752000  *   1.57656000  *   3.41470000  *
    21       H         -1.11934000  *   1.70764000  *   3.40391000  *
    22       H         -2.56899000  *   1.69434000  *   1.59845000  *
    23       H          2.70229000  *   1.38633000  *   1.61955000  *
    24       H         -2.05463000  *   1.56787000  *  -0.72457000  *
    25       H          2.19634000  *   1.30884000  *  -0.70666000  *
    26       C          0.07239000  *   1.47395000  *  -0.67766000  *
    27       O          0.07326000  *   1.42092000  *  -1.89823000  *
 


          CARTESIAN COORDINATES 

    NO.       ATOM           X           Y           Z

     1         C         -1.5602     -1.4440     -0.0636
     2         H         -1.0917     -1.2182     -1.0225
     3         C         -0.8435     -1.7992      1.0128
     4         H         -1.3420     -2.0557      1.9481
     5         C          0.6097     -1.8893      1.0429
     6         H          1.0260     -2.2348      1.9929
     7         C          1.4225     -1.5829      0.0272
     8         H          1.0837     -1.2259     -0.9344
     9         H          2.4956     -1.6695      0.0823
    10         C         -3.0449     -1.3380     -0.0451
    11         H         -3.4087     -0.5864     -0.7596
    12         H         -3.5085     -2.2952     -0.3279
    13         H         -3.4378     -1.0706      0.9445
    14         C          0.7401      1.5669      2.4381
    15         C         -0.6067      1.6424      2.4323
    16         C         -1.5053      1.6415      1.3110
    17         C          1.6418      1.4583      1.3237
    18         C         -1.2237      1.5708     -0.0011
    19         C          1.3656      1.4141      0.0097
    20         H          1.2475      1.5766      3.4147
    21         H         -1.1193      1.7076      3.4039
    22         H         -2.5690      1.6943      1.5984
    23         H          2.7023      1.3863      1.6196
    24         H         -2.0546      1.5679     -0.7246
    25         H          2.1963      1.3088     -0.7067
    26         C          0.0724      1.4740     -0.6777
    27         O          0.0733      1.4209     -1.8982

 General Reference for PM7:
 "Optimization of Parameters for Semiempirical Methods VI: More Modifications to the 
 NDDO Approximations and Re-optimization of Parameters", J. J. P. Stewart, J. Mol. Mod., 1:32, 19 (2013)
 https://link.springer.com/article/10.1007/s00894-012-1667-x

           Empirical Formula: C12 H14 O  =    27 atoms



      MOLECULAR POINT GROUP   :   C1  


      RHF CALCULATION, NO. OF DOUBLY OCCUPIED LEVELS = 34



          HEAT OF FORMATION =      26.929446 KCALS/MOLE


          CARTESIAN COORDINATE DERIVATIVES

   NUMBER  ATOM         X            Y            Z

     1       C     -0.143057     0.300318    -0.802507
     2       H     -0.362475    -0.011510     0.439617
     3       C      0.042643    -0.282246    -1.380626
     4       H      0.566986    -0.423908     1.176494
     5       C      1.607064     0.220980    -1.321421
     6       H      0.583702     0.016221    -0.534910
     7       C     -1.654159    -0.174808    -0.903065
     8       H      0.091004     0.090280    -0.619582
     9       H     -0.026353    -0.104110     0.102950
    10       C     -0.161070    -0.003052    -0.265636
    11       H      0.147681     0.115465     0.158638
    12       H      0.012596    -0.138041    -0.772417
    13       H      0.050204    -0.002435    -0.229938
    14       C     -0.361214    -0.465444     0.075024
    15       C      0.458522     0.265058     0.474903
    16       C     -1.257528     0.304341    -0.351410
    17       C     -0.022595     0.172740    -0.243171
    18       C      1.068086     0.117199     1.430028
    19       C      0.041063     0.101320     1.327163
    20       H      0.375256     0.116566     0.241131
    21       H      0.258539    -0.577927     0.320111
    22       H     -0.145088     0.043195     0.462415
    23       H      0.089953     0.060851     0.569315
    24       H      0.224061     0.423131     0.731999
    25       H     -0.142881    -0.427486     0.672499
    26       C     -2.003524     0.634171    -0.914204
    27       O      0.662582    -0.370865     0.156612
 


          GRADIENT NORM =   5.57411


          TIME FOR SCF CALCULATION =    0.02

          TIME FOR DERIVATIVES     =    0.02

          MOLECULAR WEIGHT =  174.24



          ROTATIONAL CONSTANTS IN CM(-1)

          A =    0.02998904   B =    0.02289545   C =    0.02185905



           PRINCIPAL MOMENTS OF INERTIA IN UNITS OF 10**(-40)*GRAM-CM**2

          A =      933.4336   B =     1222.6349   C =     1280.6035


          ORIENTATION OF MOLECULE IN FORCE CALCULATION

    NO.       ATOM         X         Y         Z

     1          C      -0.4376   -1.0895    1.9272
     2          H       0.6533   -1.0895    1.9272
     3          C      -1.1496    0.0469    1.9272
     4          H      -2.2389    0.0161    1.9653
     5          C      -0.5706    1.3827    1.8915
     6          H      -1.2986    2.1971    1.9392
     7          C       0.7346    1.6553    1.8020
     8          H       1.5084    0.9040    1.7401
     9          H       1.1291    2.6584    1.7862
    10          C      -1.0695   -2.4373    1.9372
    11          H      -0.4420   -3.1854    1.4327
    12          H      -1.2180   -2.7915    2.9686
    13          H      -2.0527   -2.4474    1.4491
    14          C      -1.0257    1.4211   -1.8099
    15          C      -1.5833    0.1933   -1.7749
    16          C      -0.9836   -1.0595   -1.4066
    17          C       0.3187    1.8104   -1.4814
    18          C       0.2761   -1.3133   -1.0133
    19          C       1.3460    1.0491   -1.0693
    20          H      -1.6643    2.2630   -2.1177
    21          H      -2.6440    0.1053   -2.0546
    22          H      -1.6822   -1.9122   -1.4497
    23          H       0.4991    2.8950   -1.5741
    24          H       0.5546   -2.3472   -0.7536
    25          H       2.3107    1.5318   -0.8439
    26          C       1.4073   -0.3978   -0.8431
    27          O       2.4697   -0.8711   -0.4691


    FIRST DERIVATIVES WILL BE USED IN THE CALCULATION OF SECOND DERIVATIVES

          ESTIMATED TIME TO COMPLETE CALCULATION =        5.06 SECONDS

    FOR POINT-GROUP C1   THERE ARE   1 UNIQUE SYMMETRY FUNCTIONS.

 STEP:   1 TIME =     0.02 SECS, INTEGRAL =      0.02 TIME LEFT: 172799.95
 STEP:   2 TIME =     0.02 SECS, INTEGRAL =      0.03 TIME LEFT: 172799.94
 STEP:   3 TIME =     0.02 SECS, INTEGRAL =      0.05 TIME LEFT: 172799.92
 STEP:   4 TIME =     0.02 SECS, INTEGRAL =      0.07 TIME LEFT: 172799.90
 STEP:   5 TIME =     0.02 SECS, INTEGRAL =      0.08 TIME LEFT: 172799.89
 STEP:   6 TIME =     0.02 SECS, INTEGRAL =      0.10 TIME LEFT: 172799.87
 STEP:   7 TIME =     0.02 SECS, INTEGRAL =      0.12 TIME LEFT: 172799.85
 STEP:   8 TIME =     0.02 SECS, INTEGRAL =      0.13 TIME LEFT: 172799.84
 STEP:   9 TIME =     0.02 SECS, INTEGRAL =      0.15 TIME LEFT: 172799.82
 STEP:  10 TIME =     0.02 SECS, INTEGRAL =      0.17 TIME LEFT: 172799.80
 STEP:  11 TIME =     0.02 SECS, INTEGRAL =      0.18 TIME LEFT: 172799.79
 STEP:  12 TIME =     0.02 SECS, INTEGRAL =      0.20 TIME LEFT: 172799.77
 STEP:  13 TIME =     0.02 SECS, INTEGRAL =      0.21 TIME LEFT: 172799.75
 STEP:  14 TIME =     0.02 SECS, INTEGRAL =      0.23 TIME LEFT: 172799.74
 STEP:  15 TIME =     0.02 SECS, INTEGRAL =      0.25 TIME LEFT: 172799.72
 STEP:  16 TIME =     0.03 SECS, INTEGRAL =      0.28 TIME LEFT: 172799.69
 STEP:  17 TIME =     0.02 SECS, INTEGRAL =      0.29 TIME LEFT: 172799.68
 STEP:  18 TIME =     0.02 SECS, INTEGRAL =      0.31 TIME LEFT: 172799.66
 STEP:  19 TIME =     0.02 SECS, INTEGRAL =      0.32 TIME LEFT: 172799.64
 STEP:  20 TIME =     0.02 SECS, INTEGRAL =      0.34 TIME LEFT: 172799.63
 STEP:  21 TIME =     0.02 SECS, INTEGRAL =      0.36 TIME LEFT: 172799.61
 STEP:  22 TIME =     0.02 SECS, INTEGRAL =      0.38 TIME LEFT: 172799.59
 STEP:  23 TIME =     0.02 SECS, INTEGRAL =      0.39 TIME LEFT: 172799.57
 STEP:  24 TIME =     0.02 SECS, INTEGRAL =      0.41 TIME LEFT: 172799.56
 STEP:  25 TIME =     0.02 SECS, INTEGRAL =      0.43 TIME LEFT: 172799.54
 STEP:  26 TIME =     0.02 SECS, INTEGRAL =      0.44 TIME LEFT: 172799.53
 STEP:  27 TIME =     0.03 SECS, INTEGRAL =      0.47 TIME LEFT: 172799.50
 STEP:  28 TIME =     0.04 SECS, INTEGRAL =      0.50 TIME LEFT: 172799.46
 STEP:  29 TIME =     0.02 SECS, INTEGRAL =      0.52 TIME LEFT: 172799.45
 STEP:  30 TIME =     0.02 SECS, INTEGRAL =      0.54 TIME LEFT: 172799.43
 STEP:  31 TIME =     0.02 SECS, INTEGRAL =      0.55 TIME LEFT: 172799.42
 STEP:  32 TIME =     0.02 SECS, INTEGRAL =      0.57 TIME LEFT: 172799.40
 STEP:  33 TIME =     0.02 SECS, INTEGRAL =      0.58 TIME LEFT: 172799.39
 STEP:  34 TIME =     0.02 SECS, INTEGRAL =      0.60 TIME LEFT: 172799.37
 STEP:  35 TIME =     0.02 SECS, INTEGRAL =      0.61 TIME LEFT: 172799.36
 STEP:  36 TIME =     0.02 SECS, INTEGRAL =      0.64 TIME LEFT: 172799.33
 STEP:  37 TIME =     0.02 SECS, INTEGRAL =      0.66 TIME LEFT: 172799.31
 STEP:  38 TIME =     0.02 SECS, INTEGRAL =      0.67 TIME LEFT: 172799.30
 STEP:  39 TIME =     0.02 SECS, INTEGRAL =      0.69 TIME LEFT: 172799.28
 STEP:  40 TIME =     0.02 SECS, INTEGRAL =      0.71 TIME LEFT: 172799.26
 STEP:  41 TIME =     0.02 SECS, INTEGRAL =      0.73 TIME LEFT: 172799.24
 STEP:  42 TIME =     0.02 SECS, INTEGRAL =      0.74 TIME LEFT: 172799.23
 STEP:  43 TIME =     0.02 SECS, INTEGRAL =      0.76 TIME LEFT: 172799.21
 STEP:  44 TIME =     0.02 SECS, INTEGRAL =      0.78 TIME LEFT: 172799.19
 STEP:  45 TIME =     0.02 SECS, INTEGRAL =      0.80 TIME LEFT: 172799.17
 STEP:  46 TIME =     0.02 SECS, INTEGRAL =      0.82 TIME LEFT: 172799.15
 STEP:  47 TIME =     0.02 SECS, INTEGRAL =      0.83 TIME LEFT: 172799.14
 STEP:  48 TIME =     0.02 SECS, INTEGRAL =      0.85 TIME LEFT: 172799.12
 STEP:  49 TIME =     0.02 SECS, INTEGRAL =      0.87 TIME LEFT: 172799.10
 STEP:  50 TIME =     0.02 SECS, INTEGRAL =      0.89 TIME LEFT: 172799.08
 STEP:  51 TIME =     0.02 SECS, INTEGRAL =      0.91 TIME LEFT: 172799.06
 STEP:  52 TIME =     0.02 SECS, INTEGRAL =      0.93 TIME LEFT: 172799.04
 STEP:  53 TIME =     0.02 SECS, INTEGRAL =      0.95 TIME LEFT: 172799.02
 STEP:  54 TIME =     0.02 SECS, INTEGRAL =      0.96 TIME LEFT: 172799.01
 STEP:  55 TIME =     0.02 SECS, INTEGRAL =      0.98 TIME LEFT: 172798.98
 STEP:  56 TIME =     0.03 SECS, INTEGRAL =      1.01 TIME LEFT: 172798.96
 STEP:  57 TIME =     0.02 SECS, INTEGRAL =      1.04 TIME LEFT: 172798.93
 STEP:  58 TIME =     0.02 SECS, INTEGRAL =      1.05 TIME LEFT: 172798.92
 STEP:  59 TIME =     0.02 SECS, INTEGRAL =      1.07 TIME LEFT: 172798.90
 STEP:  60 TIME =     0.04 SECS, INTEGRAL =      1.11 TIME LEFT: 172798.86
 STEP:  61 TIME =     0.02 SECS, INTEGRAL =      1.12 TIME LEFT: 172798.84
 STEP:  62 TIME =     0.02 SECS, INTEGRAL =      1.14 TIME LEFT: 172798.83
 STEP:  63 TIME =     0.04 SECS, INTEGRAL =      1.18 TIME LEFT: 172798.79
 STEP:  64 TIME =     0.03 SECS, INTEGRAL =      1.21 TIME LEFT: 172798.76
 STEP:  65 TIME =     0.02 SECS, INTEGRAL =      1.23 TIME LEFT: 172798.74
 STEP:  66 TIME =     0.02 SECS, INTEGRAL =      1.24 TIME LEFT: 172798.73
 STEP:  67 TIME =     0.02 SECS, INTEGRAL =      1.26 TIME LEFT: 172798.71
 STEP:  68 TIME =     0.02 SECS, INTEGRAL =      1.28 TIME LEFT: 172798.69
 STEP:  69 TIME =     0.02 SECS, INTEGRAL =      1.29 TIME LEFT: 172798.68
 STEP:  70 TIME =     0.02 SECS, INTEGRAL =      1.31 TIME LEFT: 172798.66
 STEP:  71 TIME =     0.02 SECS, INTEGRAL =      1.32 TIME LEFT: 172798.64
 STEP:  72 TIME =     0.02 SECS, INTEGRAL =      1.34 TIME LEFT: 172798.63
 STEP:  73 TIME =     0.02 SECS, INTEGRAL =      1.36 TIME LEFT: 172798.61
 STEP:  74 TIME =     0.02 SECS, INTEGRAL =      1.37 TIME LEFT: 172798.60
 STEP:  75 TIME =     0.02 SECS, INTEGRAL =      1.39 TIME LEFT: 172798.58
 STEP:  76 TIME =     0.02 SECS, INTEGRAL =      1.41 TIME LEFT: 172798.56
 STEP:  77 TIME =     0.03 SECS, INTEGRAL =      1.43 TIME LEFT: 172798.54
 STEP:  78 TIME =     0.04 SECS, INTEGRAL =      1.47 TIME LEFT: 172798.50
 STEP:  79 TIME =     0.02 SECS, INTEGRAL =      1.49 TIME LEFT: 172798.48
 STEP:  80 TIME =     0.03 SECS, INTEGRAL =      1.52 TIME LEFT: 172798.45
 STEP:  81 TIME =     0.03 SECS, INTEGRAL =      1.55 TIME LEFT: 172798.42

(To convert to Hartree/Bohr^2, multiply by (10^(-21) x N x a0^2)/(4.184 x 627.51) =  0.0642)


           FORCE MATRIX IN MILLIDYNES/ANGSTROM


                  C  1       H  2       C  3       H  4       C  5       H  6
 ------------------------------------------------------------------------------
     C    1  16.619704
     H    2   3.441113   4.326226
     C    3   9.759421   0.793478  16.797697
     H    4   0.839566   0.131608   3.449582   4.395809
     C    5   1.019338   0.070263   4.506982   0.738040  17.098608
     H    6   0.043969   0.003230   0.738883   0.027071   3.432901   4.371730
     C    7   0.108255   0.024425   1.009195   0.043083  10.129848   0.838057
     H    8   0.029951   0.023730   0.080051   0.004054   0.796436   0.140764
     H    9   0.008276   0.008123   0.141434   0.008120   0.810922   0.070131
     C   10   3.955772   0.685935   0.881175   0.073039   0.141747   0.012358
     H   11   0.728741   0.024599   0.041274   0.005692   0.014590   0.001621
     H   12   0.731229   0.016311   0.026677   0.012700   0.020520   0.001686
     H   13   0.720750   0.039348   0.028671   0.019265   0.009113   0.001414
     C   14   0.004872   0.003940   0.005735   0.001778   0.005219   0.002014
     C   15   0.007828   0.003861   0.009024   0.002494   0.005391   0.001567
     C   16   0.022567   0.005093   0.015007   0.001535   0.005344   0.001185
     C   17   0.004308   0.004987   0.004858   0.001635   0.013688   0.001442
     C   18   0.012057   0.012761   0.028660   0.005977   0.010390   0.003270
     C   19   0.007234   0.011331   0.009552   0.003967   0.021751   0.005310
     H   20   0.001360   0.001335   0.003317   0.001596   0.001682   0.002481
     H   21   0.001607   0.001291   0.002859   0.002625   0.001433   0.001449
     H   22   0.002963   0.002057   0.003280   0.002487   0.000932   0.000671
     H   23   0.001575   0.001386   0.002646   0.000835   0.002041   0.002351
     H   24   0.006449   0.006286   0.007504   0.002584   0.003237   0.001215
     H   25   0.002056   0.001971   0.002617   0.001256   0.003454   0.002298
     C   26   0.020949   0.032732   0.019188   0.008833   0.007806   0.007352
     O   27   0.011895   0.021546   0.012012   0.005081   0.005938   0.004374


                  C  7       H  8       H  9       C 10       H 11       H 12
 ------------------------------------------------------------------------------
     C    7  15.791739
     H    8   3.545123   4.277012
     H    9   3.570190   0.465797   4.318988
     C   10   0.024393   0.009600   0.011888  11.655899
     H   11   0.005046   0.002627   0.001874   3.406174   4.209165
     H   12   0.004715   0.001944   0.001707   3.371513   0.464242   4.186883
     H   13   0.003779   0.001802   0.001562   3.413347   0.458659   0.462304
     C   14   0.008282   0.003599   0.001845   0.005745   0.002771   0.000694
     C   15   0.010246   0.004017   0.002420   0.005081   0.001322   0.000861
     C   16   0.008644   0.005013   0.001571   0.009742   0.002313   0.001042
     C   17   0.027346   0.005326   0.002220   0.005432   0.002288   0.000884
     C   18   0.014408   0.011741   0.003926   0.034698   0.008345   0.002898
     C   19   0.028091   0.015631   0.006042   0.010608   0.004367   0.001659
     H   20   0.003319   0.001510   0.001264   0.003162   0.001437   0.000432
     H   21   0.003771   0.001748   0.001095   0.004380   0.001050   0.000732
     H   22   0.002868   0.001736   0.001124   0.011688   0.004107   0.001502
     H   23   0.007181   0.002698   0.003644   0.002601   0.001054   0.000512
     H   24   0.004753   0.002179   0.001873   0.014441   0.012138   0.002554
     H   25   0.010507   0.010640   0.005820   0.004182   0.001413   0.000647
     C   26   0.030616   0.034696   0.009254   0.029463   0.011825   0.004372
     O   27   0.023119   0.021589   0.006102   0.020391   0.008445   0.003504


                  H 13       C 14       C 15       C 16       C 17       C 18
 ------------------------------------------------------------------------------
     H   13   4.220788
     C   14   0.002393  16.488380
     C   15   0.001715   8.837027  16.504026
     C   16   0.003051   1.239189   4.797872  16.709345
     C   17   0.001737   4.776164   1.238061   0.424404  16.707744
     C   18   0.006663   0.362147   1.164651   9.255229   0.241811  16.612185
     C   19   0.002914   1.157515   0.358798   0.239636   9.281909   0.576153
     H   20   0.001020   3.375682   0.835537   0.134667   0.780896   0.021695
     H   21   0.001920   0.835451   3.376388   0.783491   0.134106   0.046575
     H   22   0.005179   0.048683   0.776453   3.361136   0.003017   0.834117
     H   23   0.000728   0.774715   0.048722   0.002868   3.359886   0.015187
     H   24   0.004244   0.013742   0.132912   0.821044   0.016904   3.369888
     H   25   0.001411   0.133119   0.014187   0.017070   0.819694   0.050282
     C   26   0.008864   0.214572   0.216171   0.919391   0.917724   3.975956
     O   27   0.005552   0.120709   0.120895   0.215558   0.215697   1.748457


                  C 19       H 20       H 21       H 22       H 23       H 24
 ------------------------------------------------------------------------------
     C   19  16.616001
     H   20   0.046312   4.329907
     H   21   0.021551   0.066225   4.331771
     H   22   0.015413   0.009872   0.035934   4.311381
     H   23   0.835795   0.035748   0.009692   0.001304   4.309759
     H   24   0.050492   0.010929   0.009087   0.069003   0.001940   4.308702
     H   25   3.369851   0.009265   0.010872   0.001500   0.068914   0.010988
     C   26   3.957435   0.033127   0.033073   0.156503   0.156445   0.781756
     O   27   1.741898   0.010809   0.010960   0.027329   0.027314   0.053429


                  H 25       C 26       O 27
 ------------------------------------------
     H   25   4.306333
     C   26   0.781701  17.258792
     O   27   0.053066  11.244380  13.484255


          HEAT OF FORMATION =      26.929446 KCALS/MOLE

          ZERO POINT ENERGY     133.511 KCAL/MOL

         NOTE: SYSTEM IS NOT A GROUND STATE, THEREFORE ZERO POINT
         ENERGY IS NOT MEANINGFULL. ZERO POINT ENERGY PRINTED
         DOES NOT INCLUDE THE  2 IMAGINARY FREQUENCIES


           NORMAL COORDINATE ANALYSIS (Total motion = 1 Angstrom)


   Root No.       1         2         3         4         5         6         7         8

                 1 A       2 A       3 A       4 A       5 A       6 A       7 A       8 A   

                 -54.2     -12.8      25.4      35.3      52.0      75.2      85.3      93.9
  
           1    0.0066    0.0203   -0.0184   -0.0182   -0.0005   -0.0040   -0.0063   -0.0046
           2    0.0006    0.0011    0.0168   -0.0206    0.0027    0.0044   -0.0018    0.0007
           3   -0.0163    0.0038   -0.0110    0.0138   -0.0034    0.0081   -0.0169    0.0674
           4    0.0069    0.0203   -0.0184   -0.0182   -0.0002   -0.0040   -0.0064   -0.0048
           5    0.0010    0.0239    0.0194   -0.0241    0.0007    0.0072   -0.0060    0.0009
           6   -0.0263   -0.0063   -0.0122    0.0057   -0.0318   -0.0099   -0.1093    0.1660
           7    0.0061   -0.0036   -0.0211   -0.0143    0.0014   -0.0066   -0.0023   -0.0046
           8    0.0002   -0.0138    0.0150   -0.0182    0.0038    0.0027    0.0007    0.0005
           9   -0.0065    0.0038   -0.0052    0.0058    0.0123    0.0575    0.0452   -0.0194
          10    0.0065   -0.0027   -0.0209   -0.0141    0.0022   -0.0059    0.0005   -0.0078
          11   -0.0003   -0.0369    0.0125   -0.0138    0.0060   -0.0007    0.0035    0.0022
          12    0.0030    0.0137   -0.0038    0.0148    0.0389    0.0786    0.1361   -0.1185
          13    0.0054   -0.0324   -0.0241   -0.0098    0.0028   -0.0104   -0.0015    0.0006
          14    0.0006   -0.0018    0.0166   -0.0207    0.0029    0.0051   -0.0011   -0.0007
          15   -0.0065   -0.0097    0.0002   -0.0152   -0.0034    0.0851   -0.0038    0.0163
          16    0.0057   -0.0502   -0.0257   -0.0064    0.0027   -0.0080   -0.0013    0.0060
          17    0.0001   -0.0170    0.0147   -0.0174    0.0041    0.0019    0.0011    0.0012
          18    0.0053   -0.0202    0.0072   -0.0182   -0.0250    0.1758   -0.0362    0.0631
          19    0.0043   -0.0381   -0.0250   -0.0096    0.0040   -0.0172   -0.0011    0.0000
          20    0.0013    0.0257    0.0199   -0.0263    0.0009    0.0109   -0.0042   -0.0056
          21   -0.0190   -0.0099   -0.0028   -0.0301    0.0089    0.0048   -0.0077   -0.0069
          22    0.0041   -0.0219   -0.0237   -0.0124    0.0044   -0.0204   -0.0004   -0.0066
          23    0.0017    0.0417    0.0221   -0.0294   -0.0003    0.0147   -0.0061   -0.0087
          24   -0.0314    0.0006   -0.0095   -0.0283    0.0309   -0.0846    0.0255   -0.0559
          25    0.0041   -0.0599   -0.0272   -0.0064    0.0046   -0.0196   -0.0014    0.0063
          26    0.0014    0.0340    0.0209   -0.0278    0.0005    0.0121   -0.0047   -0.0077
          27   -0.0185   -0.0203    0.0011   -0.0455   -0.0016    0.0234   -0.0434    0.0201
          28    0.0078    0.0483   -0.0141   -0.0214    0.0013   -0.0010   -0.0136   -0.0039
          29    0.0001   -0.0119    0.0149   -0.0188    0.0024    0.0026    0.0019    0.0004
          30   -0.0154    0.0172   -0.0165    0.0339    0.0172   -0.0260    0.0357    0.0361
          31   -0.0022    0.0647   -0.0296   -0.0490   -0.0831   -0.0040    0.0067    0.0114
          32    0.0064   -0.0047    0.0283   -0.0149    0.0385    0.0189   -0.0371    0.0091
          33   -0.0375    0.0268   -0.0559   -0.0062   -0.1419   -0.0538    0.1198    0.0416
          34    0.0322    0.0534    0.0261    0.0332    0.1862    0.0091   -0.0770   -0.0279
          35   -0.0106   -0.0037   -0.0079   -0.0285   -0.0665   -0.0287    0.0712   -0.0129
          36   -0.0156    0.0208   -0.0185    0.0386    0.0205   -0.0353    0.0503    0.0280
          37   -0.0030    0.0496   -0.0321   -0.0472   -0.0839   -0.0053    0.0136    0.0084
          38    0.0036   -0.0372    0.0210   -0.0132    0.0289    0.0153   -0.0200    0.0032
          39    0.0066    0.0152    0.0198    0.0859    0.1891   -0.0176   -0.0194    0.0116
          40   -0.0116    0.0176   -0.0021    0.0079    0.0005    0.0081   -0.0013   -0.0034
          41    0.0054    0.0181   -0.0058    0.0110   -0.0012   -0.0055    0.0021    0.0054
          42    0.0382    0.0002    0.0498   -0.0037   -0.0077   -0.0276    0.0073    0.0091
          43   -0.0123    0.0019    0.0015    0.0031    0.0032    0.0043    0.0046    0.0024
          44    0.0057    0.0251   -0.0075    0.0139   -0.0028   -0.0033   -0.0011    0.0021
          45    0.0381   -0.0023    0.0443    0.0206   -0.0200   -0.0133   -0.0111   -0.0140
          46    0.0037   -0.0144    0.0132    0.0032    0.0026    0.0019    0.0103    0.0084
          47   -0.0044    0.0169   -0.0118    0.0159   -0.0033   -0.0016   -0.0037   -0.0026
          48   -0.0220   -0.0037    0.0112    0.0274   -0.0207   -0.0034   -0.0289   -0.0393
          49    0.0057    0.0220    0.0047    0.0145   -0.0041    0.0105   -0.0024   -0.0025
          50   -0.0044    0.0006   -0.0076    0.0094    0.0006   -0.0066    0.0033    0.0038
          51   -0.0206    0.0030    0.0247   -0.0286    0.0093   -0.0360    0.0102    0.0073
          52    0.0071   -0.0179    0.0214    0.0067    0.0004    0.0020    0.0096    0.0071
          53   -0.0073    0.0004   -0.0140    0.0160   -0.0029   -0.0014   -0.0028   -0.0035
          54   -0.0347   -0.0032   -0.0164    0.0163   -0.0137   -0.0038   -0.0262   -0.0360
          55    0.0086    0.0120    0.0143    0.0160   -0.0058    0.0090    0.0001    0.0001
          56   -0.0071   -0.0131   -0.0106    0.0108    0.0005   -0.0054    0.0025    0.0008
          57   -0.0328    0.0026   -0.0049   -0.0297    0.0135   -0.0302    0.0026   -0.0048
          58   -0.0242    0.0287   -0.0110    0.0070    0.0017    0.0098   -0.0057   -0.0086
          59    0.0130    0.0267   -0.0026    0.0097   -0.0012   -0.0064    0.0038    0.0091
          60    0.0851    0.0007    0.0771   -0.0053   -0.0103   -0.0336    0.0208    0.0301
          61   -0.0256    0.0011   -0.0048   -0.0015    0.0063    0.0030    0.0049    0.0020
          62    0.0139    0.0390   -0.0058    0.0148   -0.0039   -0.0027   -0.0019    0.0030
          63    0.0857   -0.0037    0.0678    0.0377   -0.0313   -0.0085   -0.0120   -0.0129
          64    0.0130   -0.0251    0.0152   -0.0003    0.0043   -0.0003    0.0151    0.0136
          65   -0.0102    0.0258   -0.0134    0.0178   -0.0043   -0.0003   -0.0068   -0.0057
          66   -0.0579   -0.0056    0.0100    0.0453   -0.0294    0.0048   -0.0454   -0.0619
          67    0.0171    0.0355    0.0012    0.0187   -0.0067    0.0142   -0.0057   -0.0039
          68   -0.0093   -0.0014   -0.0064    0.0069    0.0019   -0.0083    0.0047    0.0049
          69   -0.0554    0.0059    0.0324   -0.0489    0.0202   -0.0496    0.0200    0.0168
          70    0.0187   -0.0312    0.0299    0.0059    0.0016    0.0004    0.0131    0.0106
          71   -0.0152   -0.0036   -0.0174    0.0180   -0.0040   -0.0002   -0.0049   -0.0063
          72   -0.0788   -0.0047   -0.0395    0.0250   -0.0196    0.0029   -0.0384   -0.0514
          73    0.0218    0.0178    0.0183    0.0215   -0.0098    0.0119   -0.0011    0.0011
          74   -0.0136   -0.0256   -0.0116    0.0093    0.0019   -0.0063    0.0033   -0.0005
          75   -0.0748    0.0049   -0.0198   -0.0503    0.0279   -0.0404    0.0063   -0.0062
          76   -0.0057   -0.0062    0.0211    0.0115   -0.0030    0.0038    0.0040    0.0014
          77   -0.0005   -0.0144   -0.0128    0.0142   -0.0014   -0.0025    0.0009   -0.0007
          78    0.0127   -0.0011   -0.0215   -0.0063    0.0006   -0.0109   -0.0085   -0.0137
          79   -0.0241   -0.0122    0.0279    0.0123   -0.0040    0.0008    0.0028   -0.0009
          80    0.0086   -0.0287   -0.0144    0.0160   -0.0019   -0.0006    0.0024    0.0001
          81    0.0770   -0.0023   -0.0426   -0.0065    0.0029   -0.0002   -0.0032   -0.0062


   Root No.       9        10        11        12        13        14        15        16

                 9 A      10 A      11 A      12 A      13 A      14 A      15 A      16 A   

                 117.0     221.6     227.7     235.5     281.0     377.1     393.3     410.8
  
           1   -0.0021    0.0218    0.0088   -0.0008    0.0007   -0.0016    0.0760   -0.0006
           2    0.0018   -0.0341   -0.0108   -0.0004   -0.0009   -0.0004    0.0152   -0.0002
           3    0.0039   -0.0170    0.0445   -0.0163    0.0043   -0.0004   -0.0017    0.0006
           4   -0.0021    0.0193    0.0076   -0.0007    0.0008   -0.0015    0.0689   -0.0005
           5    0.0050   -0.0694   -0.0238   -0.0007   -0.0020   -0.0000   -0.0028   -0.0005
           6    0.0035   -0.0200    0.0682   -0.0236    0.0054    0.0000    0.0034    0.0002
           7   -0.0052    0.0420    0.0159   -0.0006    0.0012   -0.0005    0.0225   -0.0002
           8   -0.0002   -0.0216   -0.0064   -0.0004   -0.0007    0.0004   -0.0184    0.0001
           9   -0.0071   -0.0228    0.0381   -0.0173    0.0014   -0.0001   -0.0035   -0.0002
          10   -0.0053    0.0383    0.0148   -0.0007    0.0011   -0.0005    0.0233   -0.0002
          11   -0.0026   -0.0265   -0.0083    0.0000   -0.0008    0.0017   -0.0784    0.0005
          12   -0.0139   -0.0338    0.0424   -0.0233    0.0008   -0.0003   -0.0085   -0.0011
          13   -0.0072    0.0070    0.0009    0.0009   -0.0002    0.0010   -0.0405    0.0004
          14    0.0009   -0.0070   -0.0021   -0.0003   -0.0002    0.0000   -0.0020   -0.0002
          15   -0.0061    0.0102   -0.0240    0.0118   -0.0033    0.0002    0.0019    0.0002
          16   -0.0143   -0.0262   -0.0150    0.0035   -0.0019    0.0010   -0.0385    0.0005
          17   -0.0001   -0.0362   -0.0106   -0.0005   -0.0012    0.0001   -0.0072   -0.0001
          18   -0.0983    0.0503   -0.1068    0.0550   -0.0118    0.0006    0.0038    0.0017
          19    0.0002   -0.0087   -0.0025   -0.0001   -0.0003    0.0007   -0.0309    0.0002
          20    0.0023    0.0626    0.0188    0.0002    0.0015    0.0011   -0.0543    0.0002
          21    0.1060    0.0050   -0.0076   -0.0024    0.0022   -0.0003    0.0026   -0.0009
          22    0.0075    0.0271    0.0148   -0.0031    0.0009    0.0015   -0.0688    0.0001
          23    0.0035    0.1031    0.0303    0.0002    0.0021    0.0019   -0.0953    0.0002
          24    0.1920   -0.0345    0.0750   -0.0428    0.0077    0.0000    0.0011   -0.0010
          25   -0.0013   -0.0624   -0.0247    0.0018   -0.0015   -0.0003    0.0227   -0.0001
          26    0.0030    0.0847    0.0265   -0.0001    0.0019    0.0015   -0.0773    0.0002
          27    0.1141    0.0400   -0.0754    0.0276   -0.0003   -0.0006    0.0042   -0.0003
          28    0.0026   -0.0459   -0.0164   -0.0005   -0.0016    0.0003   -0.0151   -0.0003
          29   -0.0002   -0.0056   -0.0011   -0.0001    0.0000   -0.0013    0.0618   -0.0003
          30    0.0178    0.0168   -0.0289    0.0152   -0.0008    0.0004   -0.0006    0.0008
          31    0.0098   -0.0957   -0.0192   -0.0025   -0.0002    0.0018   -0.0884    0.0008
          32   -0.0057   -0.0489    0.0154   -0.0127    0.0007   -0.0007    0.0095    0.0001
          33    0.0349    0.0211   -0.0573    0.0318   -0.0001    0.0013   -0.0092    0.0012
          34   -0.0058   -0.0463   -0.0459    0.0035   -0.0065    0.0012   -0.0402   -0.0011
          35    0.0152    0.0251   -0.0546    0.0266   -0.0024   -0.0007    0.0763   -0.0002
          36    0.0220    0.0275   -0.0526    0.0253   -0.0024    0.0008    0.0009    0.0007
          37    0.0071   -0.0559   -0.0057   -0.0026    0.0004    0.0003   -0.0231    0.0003
          38   -0.0109    0.0356    0.0430   -0.0124    0.0027   -0.0037    0.1474   -0.0009
          39    0.0091    0.0359   -0.0523    0.0199   -0.0048    0.0007    0.0088   -0.0004
          40   -0.0012   -0.0016    0.0027    0.0111    0.0039   -0.0706   -0.0006    0.0115
          41   -0.0010    0.0008   -0.0015   -0.0054   -0.0022    0.0291    0.0000   -0.0667
          42   -0.0104    0.0059   -0.0111   -0.0373   -0.0177   -0.0237   -0.0002    0.0111
          43   -0.0063    0.0016   -0.0038   -0.0097    0.0036   -0.0698   -0.0009   -0.0567
          44    0.0019   -0.0010    0.0022    0.0061   -0.0018    0.0323    0.0002   -0.0363
          45    0.0104   -0.0055    0.0126    0.0370   -0.0159   -0.0234    0.0001   -0.0079
          46   -0.0013    0.0009   -0.0008   -0.0049   -0.0145    0.0231    0.0001   -0.0288
          47    0.0002   -0.0006    0.0005    0.0031    0.0099    0.0801    0.0007   -0.0123
          48   -0.0030   -0.0029    0.0021    0.0189    0.0541   -0.0086   -0.0001   -0.0074
          49    0.0075   -0.0006    0.0021    0.0053   -0.0159   -0.0451   -0.0003    0.0107
          50   -0.0046    0.0004   -0.0011   -0.0024    0.0071   -0.0707   -0.0008   -0.0282
          51   -0.0410    0.0025   -0.0088   -0.0178    0.0531   -0.0044   -0.0002    0.0086
          52    0.0027   -0.0020    0.0041    0.0121    0.0120    0.0207   -0.0000   -0.0054
          53   -0.0007    0.0011   -0.0024   -0.0073   -0.0060    0.0475    0.0008    0.0984
          54   -0.0168    0.0074   -0.0154   -0.0420   -0.0412   -0.0008    0.0006   -0.0182
          55    0.0075    0.0022   -0.0047   -0.0129    0.0109   -0.0210    0.0001    0.0784
          56   -0.0032   -0.0010    0.0023    0.0064   -0.0065   -0.0454   -0.0003    0.0622
          57   -0.0388   -0.0072    0.0143    0.0440   -0.0390    0.0026    0.0000    0.0135
          58   -0.0042   -0.0038    0.0060    0.0244    0.0240   -0.0325   -0.0002    0.0272
          59   -0.0000    0.0020   -0.0033   -0.0127   -0.0124    0.0559    0.0004   -0.0498
          60   -0.0015    0.0136   -0.0229   -0.0849   -0.0868   -0.0131    0.0000    0.0083
          61   -0.0139    0.0036   -0.0089   -0.0227    0.0222   -0.0649   -0.0010   -0.0543
          62    0.0054   -0.0021    0.0050    0.0138   -0.0131   -0.0131    0.0000   -0.0125
          63    0.0381   -0.0125    0.0311    0.0840   -0.0828   -0.0100    0.0007   -0.0069
          64   -0.0010    0.0014   -0.0002   -0.0078   -0.0428    0.0431    0.0006    0.0265
          65   -0.0002   -0.0009    0.0001    0.0049    0.0275    0.0551    0.0002   -0.0540
          66   -0.0011   -0.0048    0.0001    0.0299    0.1603   -0.0009   -0.0004    0.0117
          67    0.0136   -0.0010    0.0042    0.0079   -0.0462   -0.0144   -0.0003   -0.0581
          68   -0.0077    0.0005   -0.0022   -0.0037    0.0213   -0.0687   -0.0007   -0.0149
          69   -0.0652    0.0037   -0.0168   -0.0278    0.1586    0.0025   -0.0001   -0.0099
          70    0.0062   -0.0053    0.0107    0.0295    0.0158   -0.0421   -0.0008    0.0286
          71   -0.0019    0.0031   -0.0062   -0.0181   -0.0085    0.0256    0.0008    0.1005
          72   -0.0254    0.0188   -0.0380   -0.1043   -0.0553   -0.0112    0.0021   -0.0094
          73    0.0116    0.0054   -0.0110   -0.0322    0.0143   -0.0468   -0.0003    0.0577
          74   -0.0048   -0.0024    0.0052    0.0154   -0.0083    0.0165    0.0004    0.0880
          75   -0.0537   -0.0179    0.0353    0.1077   -0.0495   -0.0095    0.0004    0.0041
          76    0.0025    0.0001   -0.0005   -0.0003    0.0143    0.0748    0.0009    0.0284
          77    0.0001    0.0001    0.0002   -0.0002   -0.0077   -0.0324   -0.0002    0.0638
          78   -0.0178    0.0002    0.0009    0.0003   -0.0479    0.0269   -0.0001   -0.0021
          79   -0.0003    0.0002    0.0002    0.0003   -0.0093    0.0758    0.0007   -0.0298
          80    0.0022    0.0001    0.0000    0.0006    0.0052   -0.0348   -0.0004   -0.0639
          81   -0.0075   -0.0001   -0.0019   -0.0003    0.0356    0.0263    0.0004    0.0014


   Root No.      17        18        19        20        21        22        23        24

                17 A      18 A      19 A      20 A      21 A      22 A      23 A      24 A   

                 474.5     495.4     587.6     600.4     606.7     743.0     807.2     831.5
  
           1    0.0002   -0.0002    0.0005   -0.0079   -0.0019   -0.0000   -0.0000   -0.0000
           2   -0.0000    0.0000    0.0010   -0.0236   -0.0091    0.0000   -0.0001   -0.0000
           3   -0.0001   -0.0001   -0.0002   -0.0097    0.0207   -0.0002   -0.0001    0.0006
           4    0.0002   -0.0004    0.0002   -0.0059   -0.0013   -0.0003    0.0001   -0.0000
           5   -0.0002    0.0004    0.0022   -0.0738   -0.0280   -0.0001   -0.0009   -0.0002
           6    0.0001    0.0013   -0.0024    0.0177   -0.0397    0.0012    0.0048   -0.0049
           7    0.0001   -0.0000   -0.0022    0.0553    0.0215    0.0000    0.0002   -0.0000
           8   -0.0002    0.0001   -0.0011    0.0239    0.0091    0.0001    0.0000   -0.0000
           9   -0.0004    0.0002    0.0000   -0.0071    0.0112    0.0005   -0.0007   -0.0008
          10    0.0000   -0.0001   -0.0020    0.0478    0.0230   -0.0000    0.0004    0.0000
          11   -0.0002    0.0004   -0.0012    0.0180    0.0062    0.0000   -0.0002   -0.0000
          12   -0.0011    0.0001    0.0006   -0.0561    0.1250   -0.0005    0.0062    0.0008
          13   -0.0001    0.0001    0.0009   -0.0285   -0.0144   -0.0001   -0.0001    0.0001
          14   -0.0001    0.0002   -0.0033    0.0761    0.0291    0.0001   -0.0000   -0.0001
          15    0.0006    0.0000   -0.0004    0.0238   -0.0535   -0.0001   -0.0004    0.0000
          16   -0.0001    0.0002    0.0013   -0.0352   -0.0106   -0.0000    0.0003    0.0001
          17   -0.0001    0.0002   -0.0025    0.0603    0.0230    0.0002    0.0000   -0.0002
          18    0.0013   -0.0009   -0.0008   -0.0136    0.0307   -0.0008    0.0047    0.0028
          19   -0.0002    0.0001    0.0005   -0.0154   -0.0048   -0.0000   -0.0001   -0.0000
          20   -0.0001   -0.0001   -0.0003   -0.0066   -0.0010   -0.0001   -0.0002    0.0000
          21   -0.0003   -0.0000    0.0006   -0.0024    0.0082    0.0001   -0.0002   -0.0003
          22   -0.0001    0.0005    0.0046   -0.1009   -0.0548   -0.0003    0.0009   -0.0002
          23   -0.0001   -0.0000    0.0050   -0.1103   -0.0389    0.0002    0.0004   -0.0004
          24    0.0004    0.0002   -0.0031    0.0937   -0.2061   -0.0013    0.0046    0.0022
          25   -0.0006    0.0004   -0.0044    0.1025    0.0640   -0.0000    0.0001    0.0001
          26    0.0001   -0.0001    0.0019   -0.0608   -0.0255   -0.0000   -0.0002   -0.0001
          27   -0.0015   -0.0021    0.0021   -0.1321    0.2985    0.0021   -0.0007   -0.0007
          28   -0.0001    0.0000   -0.0000   -0.0056   -0.0026   -0.0000   -0.0001   -0.0001
          29    0.0002   -0.0002    0.0022   -0.0439   -0.0176   -0.0001    0.0005    0.0000
          30    0.0002   -0.0002    0.0009    0.0017   -0.0008    0.0001   -0.0004    0.0007
          31    0.0004   -0.0006    0.0003    0.0097    0.0114   -0.0003    0.0007    0.0008
          32   -0.0003   -0.0005    0.0028   -0.0391    0.0047   -0.0003   -0.0005    0.0022
          33    0.0014   -0.0001    0.0001    0.0128   -0.0192    0.0001    0.0015   -0.0017
          34   -0.0011    0.0005   -0.0021    0.0104   -0.0173   -0.0001    0.0006   -0.0020
          35    0.0011   -0.0000    0.0030   -0.0321   -0.0575    0.0003    0.0014   -0.0029
          36    0.0004    0.0000    0.0006    0.0078   -0.0197    0.0002    0.0004   -0.0009
          37    0.0002   -0.0004    0.0010   -0.0047    0.0078   -0.0000   -0.0006    0.0010
          38   -0.0002   -0.0001    0.0031   -0.0719   -0.0068    0.0000   -0.0020    0.0013
          39   -0.0003    0.0007   -0.0015    0.0071   -0.0221    0.0001    0.0011   -0.0018
          40   -0.0134    0.0383   -0.0005   -0.0001    0.0001    0.0263    0.0083   -0.0476
          41    0.0061   -0.0417    0.0001    0.0001   -0.0001   -0.0062   -0.0042    0.0715
          42    0.0490    0.0165   -0.0022   -0.0000   -0.0000    0.0090   -0.0309   -0.0233
          43    0.0121   -0.0573   -0.0003    0.0000   -0.0000    0.0221    0.0094    0.0856
          44   -0.0082    0.0008    0.0002    0.0000   -0.0000   -0.0153   -0.0047    0.0124
          45   -0.0488   -0.0155   -0.0020    0.0001   -0.0005    0.0090   -0.0309    0.0214
          46   -0.0112   -0.0682   -0.0053   -0.0001    0.0001   -0.0792    0.0000   -0.0470
          47    0.0065   -0.0051    0.0041    0.0001    0.0002   -0.0647   -0.0017   -0.0667
          48    0.0385   -0.0188    0.0205    0.0007    0.0002   -0.0107   -0.0045    0.0091
          49    0.0118    0.0413   -0.0063   -0.0003    0.0002   -0.0035    0.0006   -0.0195
          50   -0.0061   -0.0543    0.0026    0.0002   -0.0004    0.1015   -0.0003   -0.0798
          51   -0.0385    0.0206    0.0203    0.0008   -0.0001   -0.0156   -0.0035   -0.0047
          52    0.0084   -0.0534    0.0040    0.0002    0.0000   -0.0388    0.0027   -0.0250
          53   -0.0036    0.0100   -0.0033   -0.0001    0.0001    0.0556   -0.0030    0.0280
          54   -0.0311   -0.0165   -0.0137   -0.0007    0.0004   -0.0207   -0.0132   -0.0020
          55   -0.0076    0.0430    0.0049    0.0003   -0.0002   -0.0677    0.0042    0.0376
          56    0.0052   -0.0332   -0.0011   -0.0000   -0.0001   -0.0084   -0.0004   -0.0001
          57    0.0310    0.0169   -0.0140   -0.0012    0.0015   -0.0193   -0.0123    0.0018
          58   -0.0411    0.0825    0.0297    0.0012    0.0001   -0.0324   -0.0614   -0.0528
          59    0.0216   -0.0006   -0.0156   -0.0007    0.0002   -0.0499    0.0327    0.0625
          60    0.1479    0.0205   -0.1072   -0.0048    0.0007   -0.0062    0.2138    0.0075
          61    0.0398   -0.0553    0.0290    0.0013    0.0001    0.0163   -0.0600    0.0827
          62   -0.0235    0.0604   -0.0173   -0.0009   -0.0001    0.0568    0.0353    0.0005
          63   -0.1481   -0.0232   -0.1073   -0.0045   -0.0007   -0.0108    0.2181   -0.0130
          64   -0.0428   -0.0635    0.0145    0.0007    0.0003   -0.0617   -0.0454   -0.0512
          65    0.0261   -0.0069   -0.0084   -0.0004    0.0000   -0.0656    0.0270   -0.0439
          66    0.1581   -0.0192   -0.0530   -0.0020   -0.0009   -0.0104    0.1578   -0.0702
          67    0.0456    0.0370    0.0145    0.0004    0.0007    0.0084   -0.0460    0.0027
          68   -0.0221   -0.0519   -0.0072   -0.0002   -0.0004    0.0891    0.0212   -0.0650
          69   -0.1580    0.0209   -0.0522   -0.0022   -0.0007   -0.0131    0.1521    0.0687
          70    0.0137   -0.0752    0.0569    0.0021    0.0008   -0.0438    0.0015    0.0517
          71   -0.0065    0.0034   -0.0365   -0.0014   -0.0004    0.0462   -0.0026    0.0298
          72   -0.0477   -0.0201   -0.2047   -0.0078   -0.0028   -0.0223   -0.0107   -0.0608
          73   -0.0128    0.0531    0.0618    0.0028   -0.0000   -0.0652    0.0047   -0.0106
          74    0.0078   -0.0541   -0.0271   -0.0015    0.0006    0.0021    0.0003    0.0616
          75    0.0470    0.0197   -0.2038   -0.0090   -0.0003   -0.0174   -0.0166    0.0571
          76    0.0001   -0.0122   -0.0236   -0.0009   -0.0005    0.0594   -0.0130    0.0099
          77    0.0003   -0.0269    0.0128    0.0006    0.0002   -0.0264    0.0073    0.0213
          78    0.0000    0.0007    0.0853    0.0031    0.0012    0.0211    0.0487   -0.0013
          79   -0.0001    0.0527    0.0077    0.0002    0.0002    0.0725    0.0038    0.0032
          80   -0.0001    0.1161   -0.0042   -0.0002   -0.0000   -0.0321   -0.0019    0.0072
          81   -0.0000   -0.0028   -0.0252   -0.0009   -0.0004    0.0252   -0.0101   -0.0000


   Root No.      25        26        27        28        29        30        31        32

                25 A      26 A      27 A      28 A      29 A      30 A      31 A      32 A   

                 834.5     872.6     876.2     937.0     961.1     998.9    1004.3    1006.3
  
           1    0.0000   -0.0015   -0.0003   -0.0000   -0.0013    0.0095    0.0026   -0.0023
           2   -0.0000   -0.0013   -0.0003    0.0000   -0.0007   -0.0011   -0.0005    0.0003
           3    0.0021   -0.0297   -0.0053    0.0004   -0.0096   -0.0001    0.0000    0.0040
           4    0.0001   -0.0014    0.0001   -0.0001   -0.0010    0.0063    0.0018   -0.0015
           5   -0.0010   -0.0066   -0.0013    0.0003   -0.0096    0.0540    0.0124   -0.0157
           6   -0.0171    0.1914    0.0356    0.0111    0.1946    0.0117   -0.0017   -0.0787
           7   -0.0001    0.0021    0.0004   -0.0002    0.0032   -0.0349   -0.0093    0.0103
           8   -0.0001    0.0006   -0.0001    0.0000    0.0006   -0.0155   -0.0047    0.0053
           9   -0.0025    0.0405    0.0072   -0.0034   -0.0223    0.0054    0.0056    0.0389
          10    0.0002   -0.0023   -0.0003    0.0005    0.0106   -0.0294   -0.0084    0.0016
          11   -0.0004   -0.0015   -0.0005    0.0005   -0.0016   -0.0096   -0.0035    0.0027
          12    0.0021   -0.0920   -0.0159    0.0265    0.2275   -0.0089   -0.0208   -0.1833
          13    0.0001    0.0000    0.0001   -0.0002   -0.0018    0.0065    0.0017   -0.0053
          14   -0.0003   -0.0008   -0.0004    0.0003   -0.0017    0.0100    0.0022   -0.0011
          15    0.0003   -0.0017   -0.0004   -0.0021   -0.0205   -0.0083   -0.0063   -0.0456
          16    0.0001   -0.0057   -0.0012    0.0015    0.0090    0.0037    0.0019    0.0186
          17   -0.0007   -0.0001   -0.0006    0.0004   -0.0031    0.0022   -0.0005    0.0034
          18    0.0089   -0.0958   -0.0165    0.0246    0.1675    0.0444    0.0352    0.2446
          19   -0.0000   -0.0001    0.0000   -0.0001   -0.0007    0.0102    0.0027   -0.0026
          20    0.0003   -0.0000    0.0002   -0.0002   -0.0013    0.0283    0.0084   -0.0092
          21   -0.0009   -0.0026   -0.0005   -0.0010    0.0047   -0.0002   -0.0016   -0.0032
          22   -0.0009   -0.0032   -0.0010    0.0013    0.0066   -0.0546   -0.0164    0.0297
          23   -0.0013    0.0019   -0.0005    0.0001    0.0008   -0.0533   -0.0169    0.0187
          24    0.0092   -0.0647   -0.0109    0.0165    0.0778    0.0245    0.0220    0.1232
          25    0.0005    0.0020    0.0013   -0.0006   -0.0094    0.1236    0.0361   -0.0393
          26   -0.0002    0.0004   -0.0002    0.0002    0.0015   -0.0255   -0.0075    0.0089
          27   -0.0018    0.0678    0.0112   -0.0009   -0.0449   -0.0117    0.0032    0.0205
          28   -0.0002   -0.0008   -0.0004    0.0004   -0.0031    0.0167    0.0039   -0.0033
          29    0.0001    0.0013    0.0005   -0.0000    0.0039   -0.0210   -0.0048    0.0036
          30    0.0021   -0.0184   -0.0035   -0.0007   -0.0081   -0.0030   -0.0015   -0.0069
          31    0.0027   -0.0181   -0.0023   -0.0016    0.0074   -0.1045   -0.0251    0.0154
          32    0.0066   -0.0516   -0.0091   -0.0030   -0.0048   -0.1083   -0.0269    0.0062
          33   -0.0052    0.0474    0.0098    0.0016    0.0174    0.0019    0.0015    0.0109
          34   -0.0051    0.0607    0.0117    0.0003    0.0328   -0.0400   -0.0083    0.0226
          35   -0.0093    0.1236    0.0241   -0.0001    0.0490    0.0206    0.0103    0.0273
          36   -0.0031    0.0439    0.0086   -0.0003    0.0173    0.0034    0.0025    0.0085
          37    0.0030   -0.0268   -0.0054   -0.0009   -0.0098   -0.0010   -0.0009   -0.0076
          38    0.0041   -0.0620   -0.0128    0.0009   -0.0415    0.1109    0.0243   -0.0379
          39   -0.0054    0.0472    0.0094    0.0016    0.0143    0.0103    0.0037    0.0100
          40    0.0062   -0.0025    0.0364   -0.0063    0.0004    0.0020   -0.0065    0.0012
          41   -0.0097    0.0012   -0.0189    0.0035   -0.0003   -0.0011    0.0036   -0.0006
          42    0.0042   -0.0002    0.0122    0.0230   -0.0021   -0.0073    0.0225   -0.0043
          43   -0.0115   -0.0029    0.0383   -0.0060    0.0004   -0.0017    0.0063   -0.0010
          44   -0.0018    0.0010   -0.0143    0.0035   -0.0003    0.0010   -0.0036    0.0006
          45   -0.0049    0.0000    0.0121    0.0235   -0.0020    0.0060   -0.0229    0.0034
          46   -0.0009   -0.0015    0.0198    0.0065   -0.0010   -0.0015    0.0033   -0.0007
          47    0.0133   -0.0007    0.0192   -0.0036    0.0005    0.0009   -0.0023    0.0003
          48    0.0245    0.0012    0.0038   -0.0221    0.0033    0.0056   -0.0127    0.0021
          49    0.0102    0.0008   -0.0011    0.0066   -0.0009    0.0009   -0.0037    0.0001
          50    0.0067    0.0015   -0.0274   -0.0037    0.0007   -0.0004    0.0017   -0.0001
          51   -0.0251   -0.0028    0.0039   -0.0221    0.0027   -0.0034    0.0136   -0.0005
          52   -0.0033   -0.0012    0.0206    0.0072   -0.0006    0.0020   -0.0057    0.0009
          53   -0.0004   -0.0064    0.0966   -0.0034    0.0002   -0.0012    0.0032   -0.0008
          54    0.0243    0.0004   -0.0094   -0.0255    0.0021   -0.0071    0.0200   -0.0033
          55    0.0022    0.0047   -0.0591    0.0070   -0.0003   -0.0018    0.0060   -0.0009
          56   -0.0032    0.0052   -0.0796   -0.0042    0.0006    0.0010   -0.0034    0.0004
          57   -0.0243   -0.0020   -0.0057   -0.0252    0.0018    0.0060   -0.0206    0.0029
          58   -0.0152   -0.0021    0.0211    0.0308   -0.0026   -0.0105    0.0330   -0.0054
          59    0.0042    0.0021   -0.0257   -0.0162    0.0010    0.0056   -0.0169    0.0032
          60    0.0801    0.0019    0.0185   -0.1069    0.0082    0.0371   -0.1147    0.0195
          61    0.0091    0.0003    0.0349    0.0306   -0.0019    0.0088   -0.0320    0.0045
          62   -0.0116   -0.0019    0.0008   -0.0177    0.0009   -0.0049    0.0185   -0.0023
          63   -0.0728   -0.0103    0.0128   -0.1082    0.0065   -0.0319    0.1153   -0.0164
          64    0.0458   -0.0018    0.0751   -0.0278    0.0048    0.0084   -0.0208    0.0032
          65   -0.0185    0.0000   -0.0258    0.0177   -0.0029   -0.0052    0.0128   -0.0021
          66   -0.1370   -0.0096    0.0213    0.1078   -0.0184   -0.0297    0.0756   -0.0124
          67   -0.0436   -0.0087    0.0670   -0.0303    0.0036   -0.0065    0.0243   -0.0012
          68    0.0287    0.0044   -0.0374    0.0138   -0.0018    0.0030   -0.0110    0.0005
          69    0.1412    0.0124    0.0288    0.1081   -0.0150    0.0211   -0.0795    0.0046
          70    0.0410   -0.0009    0.0345   -0.0352    0.0033   -0.0094    0.0307   -0.0053
          71   -0.0339   -0.0070    0.0858    0.0218   -0.0020    0.0057   -0.0181    0.0030
          72   -0.1613   -0.0052   -0.0133    0.1222   -0.0119    0.0340   -0.1056    0.0181
          73   -0.0499   -0.0016   -0.0435   -0.0377    0.0030    0.0100   -0.0329    0.0055
          74    0.0165    0.0079   -0.0824    0.0175   -0.0018   -0.0046    0.0152   -0.0028
          75    0.1614    0.0153   -0.0040    0.1214   -0.0088   -0.0330    0.1077   -0.0182
          76   -0.0013    0.0012   -0.0280   -0.0112    0.0011   -0.0001    0.0001    0.0002
          77   -0.0024   -0.0008    0.0128    0.0059   -0.0008   -0.0001    0.0006    0.0002
          78    0.0006    0.0020   -0.0069    0.0382   -0.0043    0.0002    0.0001   -0.0003
          79   -0.0004    0.0019   -0.0321    0.0016   -0.0001   -0.0000   -0.0001    0.0001
          80   -0.0009   -0.0010    0.0142   -0.0009   -0.0000   -0.0001    0.0001    0.0000
          81   -0.0001    0.0004   -0.0116   -0.0077    0.0009   -0.0000   -0.0001    0.0001


   Root No.      33        34        35        36        37        38        39        40

                33 A      34 A      35 A      36 A      37 A      38 A      39 A      40 A   

                1038.4    1041.9    1051.7    1059.7    1081.7    1088.8    1123.5    1151.6
  
           1   -0.0027    0.0026    0.0007   -0.0001   -0.0044   -0.0026   -0.0006    0.0596
           2   -0.0046    0.0034    0.0004   -0.0001   -0.0027   -0.0014   -0.0003    0.0254
           3    0.0011   -0.0012   -0.0005   -0.0003    0.0531    0.0255    0.0010    0.0041
           4   -0.0014    0.0016    0.0005   -0.0001   -0.0034   -0.0021   -0.0004    0.0447
           5   -0.0190    0.0153    0.0021   -0.0007   -0.0110   -0.0048   -0.0003    0.0061
           6   -0.0121    0.0138    0.0040    0.0005   -0.1377   -0.0542   -0.0015   -0.0144
           7   -0.0026    0.0008   -0.0006   -0.0002    0.0027    0.0010    0.0004   -0.0471
           8   -0.0153    0.0106    0.0009   -0.0005    0.0010    0.0005    0.0002   -0.0198
           9    0.0020   -0.0005   -0.0003    0.0002   -0.0173   -0.0178   -0.0003   -0.0004
          10   -0.0027    0.0011   -0.0004   -0.0002    0.0035    0.0028    0.0004   -0.0325
          11   -0.0225    0.0158    0.0016   -0.0010    0.0077    0.0059    0.0010   -0.1822
          12   -0.0094    0.0057    0.0027   -0.0007    0.0306    0.0483    0.0012    0.0049
          13    0.0069   -0.0050   -0.0004    0.0002   -0.0007    0.0018   -0.0001   -0.0052
          14   -0.0125    0.0094    0.0013   -0.0003   -0.0003   -0.0005   -0.0002    0.0402
          15   -0.0019   -0.0011    0.0008    0.0000   -0.0048    0.0311   -0.0003    0.0025
          16   -0.0310    0.0232    0.0029   -0.0011   -0.0023   -0.0052   -0.0005    0.0774
          17   -0.0466    0.0338    0.0044   -0.0014   -0.0017   -0.0016   -0.0005    0.1063
          18    0.0077    0.0035   -0.0029    0.0004   -0.0034   -0.0534   -0.0002   -0.0090
          19    0.0008   -0.0001    0.0001    0.0000    0.0007   -0.0046   -0.0001    0.0226
          20    0.0252   -0.0174   -0.0015    0.0009   -0.0014   -0.0002   -0.0002   -0.0021
          21    0.0010    0.0020   -0.0011   -0.0002    0.0258   -0.0583    0.0011   -0.0024
          22   -0.0719    0.0508    0.0047   -0.0022   -0.0073    0.0159   -0.0004    0.0729
          23   -0.0653    0.0464    0.0041   -0.0020    0.0014   -0.0013    0.0000    0.0601
          24    0.0047   -0.0087    0.0023    0.0020   -0.1090    0.2270   -0.0048   -0.0027
          25    0.1103   -0.0768   -0.0070    0.0039   -0.0125    0.0127   -0.0009    0.0044
          26   -0.0294    0.0205    0.0022   -0.0010    0.0017   -0.0022   -0.0001    0.0130
          27   -0.0116   -0.0027    0.0048    0.0010   -0.1100    0.2299   -0.0050    0.0008
          28   -0.0108    0.0079    0.0011   -0.0004    0.0028    0.0021    0.0004   -0.0483
          29    0.0218   -0.0168   -0.0024    0.0008    0.0014    0.0007    0.0001   -0.0306
          30   -0.0003   -0.0000    0.0003    0.0003   -0.0445   -0.0198   -0.0007   -0.0029
          31    0.0685   -0.0517   -0.0069    0.0023   -0.0353   -0.0182   -0.0025    0.0511
          32    0.0755   -0.0572   -0.0074    0.0030   -0.0888   -0.0417   -0.0021    0.0401
          33    0.0007   -0.0004   -0.0005   -0.0005    0.0643    0.0283   -0.0006    0.0074
          34    0.0312   -0.0233   -0.0045    0.0007    0.0847    0.0376    0.0021    0.0291
          35    0.0051    0.0003   -0.0002   -0.0018    0.1844    0.0841    0.0062   -0.0312
          36    0.0017    0.0001   -0.0001   -0.0005    0.0534    0.0244    0.0020    0.0018
          37   -0.0020    0.0012    0.0003    0.0003   -0.0402   -0.0173    0.0001   -0.0269
          38   -0.0723    0.0537    0.0082   -0.0017   -0.0687   -0.0274   -0.0015   -0.1693
          39   -0.0032    0.0029    0.0003   -0.0007    0.0627    0.0276   -0.0002    0.0000
          40   -0.0014   -0.0023    0.0133    0.0380   -0.0004    0.0001    0.0417    0.0003
          41    0.0009    0.0012   -0.0073   -0.0379   -0.0002    0.0002    0.0017    0.0001
          42    0.0036    0.0090   -0.0397    0.0195   -0.0003    0.0002    0.0126    0.0001
          43   -0.0024   -0.0012   -0.0100    0.0543    0.0007   -0.0003   -0.0277   -0.0003
          44    0.0011    0.0008    0.0068   -0.0026   -0.0005    0.0001    0.0319    0.0002
          45    0.0068    0.0058    0.0408    0.0141    0.0004   -0.0000   -0.0135   -0.0001
          46    0.0043    0.0057    0.0090   -0.0038    0.0001   -0.0001   -0.0084   -0.0002
          47   -0.0032   -0.0031   -0.0043    0.0527    0.0007   -0.0003   -0.0310   -0.0003
          48   -0.0163   -0.0211   -0.0340   -0.0079    0.0000   -0.0004    0.0032    0.0004
          49    0.0046    0.0062   -0.0111   -0.0421   -0.0002    0.0003   -0.0170   -0.0001
          50   -0.0017   -0.0033    0.0032   -0.0331    0.0005   -0.0003   -0.0262   -0.0002
          51   -0.0149   -0.0226    0.0328   -0.0084    0.0007   -0.0015   -0.0017   -0.0000
          52   -0.0041   -0.0063   -0.0063   -0.0250   -0.0004   -0.0003    0.0160    0.0003
          53    0.0025    0.0039    0.0021   -0.0128    0.0006   -0.0002   -0.0330   -0.0003
          54    0.0152    0.0216    0.0196   -0.0058    0.0001    0.0013    0.0090   -0.0003
          55   -0.0044   -0.0065    0.0048   -0.0080    0.0011   -0.0010   -0.0352   -0.0001
          56    0.0021    0.0033   -0.0023    0.0272    0.0005    0.0003   -0.0106   -0.0000
          57    0.0152    0.0216   -0.0190   -0.0056   -0.0012    0.0028   -0.0078   -0.0002
          58    0.0041    0.0092   -0.0409   -0.0137   -0.0025    0.0011    0.1336    0.0010
          59   -0.0016   -0.0059    0.0213   -0.0734   -0.0016    0.0004    0.0852    0.0007
          60   -0.0146   -0.0340    0.1493   -0.0010    0.0005   -0.0009    0.0224    0.0003
          61    0.0070    0.0062    0.0422    0.0418    0.0008    0.0001   -0.0252   -0.0002
          62   -0.0047   -0.0030   -0.0197    0.0636   -0.0021    0.0004    0.1541    0.0011
          63   -0.0268   -0.0211   -0.1491    0.0082   -0.0004   -0.0005   -0.0296   -0.0006
          64   -0.0177   -0.0233   -0.0378   -0.0758    0.0014   -0.0004   -0.0332    0.0005
          65    0.0104    0.0150    0.0253    0.1045   -0.0007    0.0000    0.0008   -0.0007
          66    0.0664    0.0866    0.1286   -0.0443   -0.0011    0.0004   -0.0110   -0.0016
          67   -0.0170   -0.0277    0.0332   -0.1321   -0.0015    0.0005    0.0251   -0.0000
          68    0.0086    0.0123   -0.0179   -0.0128    0.0003    0.0001   -0.0236   -0.0001
          69    0.0616    0.0915   -0.1282   -0.0319   -0.0033    0.0053    0.0135    0.0005
          70    0.0173    0.0249    0.0199   -0.1203   -0.0047    0.0014    0.1414   -0.0001
          71   -0.0101   -0.0157   -0.0147   -0.0353   -0.0018   -0.0010    0.0151    0.0002
          72   -0.0591   -0.0905   -0.0781   -0.0248   -0.0035   -0.0047    0.0402    0.0019
          73    0.0195    0.0263   -0.0251   -0.0532   -0.0014    0.0047   -0.0815   -0.0009
          74   -0.0097   -0.0122    0.0150    0.1143    0.0005   -0.0019    0.1132    0.0011
          75   -0.0625   -0.0874    0.0724   -0.0356    0.0087   -0.0173   -0.0445    0.0006
          76    0.0026    0.0038    0.0008    0.0078   -0.0007    0.0007    0.0211   -0.0000
          77   -0.0013   -0.0023    0.0010   -0.0033   -0.0011    0.0004    0.0468    0.0003
          78   -0.0091   -0.0135   -0.0003    0.0019    0.0008   -0.0022   -0.0011    0.0002
          79   -0.0003   -0.0007    0.0002    0.0063    0.0003    0.0001   -0.0029    0.0000
          80    0.0002    0.0003   -0.0001   -0.0029   -0.0001    0.0001   -0.0063   -0.0001
          81    0.0017    0.0026    0.0001    0.0023   -0.0002    0.0004    0.0001   -0.0001


   Root No.      41        42        43        44        45        46        47        48

                41 A      42 A      43 A      44 A      45 A      46 A      47 A      48 A   

                1259.2    1273.3    1282.3    1291.2    1312.5    1319.3    1341.5    1342.1
  
           1    0.0403    0.0040    0.0003    0.0003   -0.0002   -0.0100   -0.0022    0.0156
           2    0.0644    0.0104   -0.0074   -0.0014   -0.0012   -0.0213    0.0033   -0.0285
           3    0.0009    0.0003   -0.0027   -0.0003    0.0001    0.0011   -0.0000    0.0003
           4    0.0319   -0.0002    0.0017    0.0006    0.0001   -0.0038   -0.0025    0.0193
           5    0.1382   -0.0538    0.0550    0.0129    0.0183    0.3118   -0.0136    0.1329
           6   -0.0015   -0.0015    0.0037    0.0011   -0.0004   -0.0013    0.0003   -0.0012
           7    0.0167   -0.0028    0.0006    0.0002    0.0008    0.0138    0.0003   -0.0007
           8    0.0463    0.0088   -0.0049   -0.0008   -0.0007   -0.0181    0.0032   -0.0275
           9   -0.0010    0.0003    0.0002   -0.0000    0.0000    0.0004    0.0000   -0.0001
          10    0.0124   -0.0042    0.0013    0.0004    0.0010    0.0150    0.0003   -0.0011
          11    0.1397    0.0157    0.0062    0.0013    0.0004   -0.0080   -0.0289    0.2281
          12   -0.0010   -0.0032    0.0016    0.0006   -0.0002   -0.0003    0.0001   -0.0012
          13    0.0118    0.0020   -0.0014   -0.0002   -0.0002   -0.0041    0.0004   -0.0030
          14   -0.0528   -0.0094    0.0048    0.0008    0.0009    0.0290    0.0005   -0.0016
          15   -0.0010   -0.0001   -0.0001   -0.0001    0.0001    0.0002    0.0000   -0.0002
          16   -0.0668    0.0044   -0.0008    0.0003   -0.0042   -0.1564   -0.0226    0.1727
          17   -0.1100   -0.0042    0.0038    0.0012   -0.0031   -0.1183   -0.0205    0.1582
          18    0.0046   -0.0007    0.0008    0.0000   -0.0001    0.0104    0.0016   -0.0110
          19   -0.0198   -0.0031    0.0010    0.0002    0.0002    0.0120    0.0021   -0.0153
          20    0.0058    0.0024   -0.0013   -0.0003   -0.0005   -0.0148   -0.0009    0.0063
          21    0.0014    0.0002   -0.0003    0.0003   -0.0001   -0.0009   -0.0001    0.0011
          22   -0.0818   -0.0177    0.0095    0.0012    0.0030    0.0908    0.0063   -0.0494
          23   -0.0716   -0.0147    0.0085    0.0012    0.0027    0.0725    0.0034   -0.0296
          24    0.0066    0.0010    0.0007   -0.0017   -0.0004   -0.0056   -0.0004    0.0036
          25   -0.0017   -0.0028    0.0036   -0.0002    0.0018    0.0391    0.0027   -0.0260
          26   -0.0116    0.0005   -0.0015   -0.0002   -0.0008   -0.0194   -0.0009    0.0091
          27    0.0002    0.0000    0.0008   -0.0015    0.0006   -0.0026   -0.0005    0.0021
          28   -0.0326   -0.0302   -0.0044   -0.0005   -0.0010   -0.0127    0.0010   -0.0093
          29   -0.0581    0.0062    0.0125    0.0019    0.0011    0.0089   -0.0014    0.0103
          30   -0.0037    0.0063   -0.0262   -0.0052   -0.0015    0.0042    0.0002    0.0021
          31   -0.0068   -0.0523    0.1373    0.0257    0.0054   -0.0313   -0.0024    0.0080
          32   -0.0269   -0.1237   -0.0450   -0.0076   -0.0041   -0.0008   -0.0017    0.0264
          33    0.0038    0.1440    0.2368    0.0422    0.0136   -0.0160   -0.0020   -0.0146
          34   -0.0437    0.3274   -0.0086   -0.0068    0.0017    0.0418   -0.0017    0.0208
          35   -0.0351   -0.1220   -0.1618   -0.0275   -0.0094    0.0010    0.0016    0.0076
          36   -0.0073    0.0099   -0.0723   -0.0134   -0.0038    0.0106    0.0005    0.0072
          37   -0.0395    0.1015   -0.0982   -0.0204   -0.0051    0.0160    0.0009    0.0056
          38   -0.0891    0.0806    0.0907    0.0141    0.0010   -0.0436    0.0049   -0.0434
          39    0.0379   -0.2302    0.1762    0.0371    0.0078   -0.0557   -0.0005   -0.0233
          40    0.0002   -0.0003    0.0026   -0.0091   -0.0046    0.0002    0.0011    0.0003
          41    0.0001   -0.0002    0.0025   -0.0090   -0.0052    0.0002    0.0067    0.0009
          42    0.0000   -0.0001    0.0004   -0.0014   -0.0003    0.0000   -0.0008   -0.0001
          43   -0.0000   -0.0000   -0.0003   -0.0007    0.0009    0.0000   -0.0043   -0.0006
          44    0.0001   -0.0004    0.0024   -0.0128    0.0069   -0.0003   -0.0051   -0.0007
          45   -0.0001    0.0001   -0.0006    0.0019   -0.0007    0.0001   -0.0005   -0.0000
          46   -0.0000   -0.0001    0.0009   -0.0047   -0.0016    0.0002   -0.0020   -0.0002
          47   -0.0001    0.0002   -0.0036    0.0151    0.0015    0.0000    0.0046    0.0006
          48    0.0001   -0.0002    0.0010   -0.0036   -0.0008   -0.0000   -0.0013   -0.0001
          49   -0.0002    0.0004   -0.0032    0.0146   -0.0024    0.0003   -0.0048   -0.0007
          50   -0.0001    0.0002   -0.0016    0.0065    0.0000    0.0002   -0.0016   -0.0002
          51    0.0000    0.0001   -0.0006    0.0030   -0.0009    0.0002   -0.0011   -0.0002
          52    0.0002   -0.0002    0.0026   -0.0132    0.0068   -0.0007    0.0060    0.0008
          53    0.0000   -0.0004    0.0031   -0.0166    0.0002    0.0002   -0.0072   -0.0009
          54   -0.0002    0.0001    0.0008   -0.0013    0.0018   -0.0001    0.0029    0.0003
          55    0.0001   -0.0002    0.0003   -0.0036    0.0041   -0.0001    0.0096    0.0012
          56    0.0002   -0.0006    0.0047   -0.0208   -0.0052    0.0003    0.0005    0.0003
          57   -0.0002    0.0001   -0.0006    0.0024    0.0018   -0.0002    0.0027    0.0003
          58    0.0014   -0.0017    0.0238   -0.0895   -0.0994    0.0070   -0.1747   -0.0217
          59    0.0013   -0.0014    0.0205   -0.0797   -0.0797    0.0056   -0.1354   -0.0167
          60    0.0004   -0.0002    0.0038   -0.0136   -0.0162    0.0012   -0.0289   -0.0034
          61   -0.0001   -0.0001    0.0002   -0.0005   -0.0060    0.0005   -0.0141   -0.0018
          62    0.0005   -0.0030    0.0195   -0.1178    0.1279   -0.0105    0.2194    0.0276
          63    0.0002    0.0004   -0.0032    0.0184   -0.0222    0.0018   -0.0384   -0.0050
          64    0.0021   -0.0037    0.0368   -0.1373   -0.0915    0.0040    0.1070    0.0150
          65   -0.0021    0.0031   -0.0332    0.1226    0.0814   -0.0034   -0.0887   -0.0125
          66    0.0002   -0.0003    0.0137   -0.0582   -0.0387    0.0021    0.0441    0.0058
          67   -0.0004    0.0052   -0.0276    0.1873   -0.1226    0.0051    0.1351    0.0182
          68    0.0001   -0.0005    0.0027   -0.0204    0.0134   -0.0004   -0.0197   -0.0026
          69   -0.0003    0.0016   -0.0086    0.0578   -0.0370    0.0011    0.0419    0.0062
          70   -0.0023   -0.0006   -0.0197    0.0271    0.1713   -0.0060   -0.0488   -0.0076
          71   -0.0009   -0.0005   -0.0074    0.0066    0.0527   -0.0020   -0.0238   -0.0034
          72   -0.0004   -0.0017   -0.0088    0.0066    0.0392   -0.0026   -0.0095   -0.0011
          73   -0.0008   -0.0001   -0.0024   -0.0155    0.0750   -0.0054   -0.0148   -0.0025
          74    0.0017    0.0003    0.0056    0.0311   -0.1650    0.0109    0.0529    0.0086
          75   -0.0001   -0.0003   -0.0014   -0.0104    0.0469   -0.0017   -0.0118   -0.0022
          76   -0.0002    0.0006   -0.0038    0.0200   -0.0033   -0.0001   -0.0004   -0.0002
          77   -0.0002    0.0014   -0.0083    0.0440    0.0021   -0.0007   -0.0002   -0.0003
          78    0.0003   -0.0001   -0.0001   -0.0011   -0.0008    0.0001   -0.0002    0.0001
          79    0.0000   -0.0000   -0.0001   -0.0006    0.0047   -0.0002   -0.0032   -0.0004
          80   -0.0000    0.0000    0.0002   -0.0010   -0.0022    0.0001    0.0015    0.0002
          81   -0.0001   -0.0000   -0.0000    0.0000    0.0016   -0.0001   -0.0011   -0.0002


   Root No.      49        50        51        52        53        54        55        56

                49 A      50 A      51 A      52 A      53 A      54 A      55 A      56 A   

                1363.2    1390.8    1391.4    1398.1    1427.3    1436.2    1481.3    1762.8
  
           1    0.0244    0.0033   -0.0051   -0.0014   -0.0000    0.0001   -0.0001   -0.0004
           2    0.0028    0.0010   -0.0005    0.0071    0.0001    0.0001    0.0001    0.0020
           3   -0.0010    0.0004   -0.0006    0.0001   -0.0000    0.0001   -0.0001    0.0001
           4    0.0191    0.0041   -0.0069   -0.0006   -0.0002   -0.0001   -0.0001   -0.0042
           5   -0.1601   -0.0291    0.0386   -0.0332   -0.0006   -0.0005    0.0005   -0.0004
           6    0.0012   -0.0001   -0.0011    0.0009   -0.0006   -0.0007   -0.0000   -0.0009
           7   -0.0283   -0.0038    0.0068    0.0118    0.0000   -0.0001    0.0002    0.0008
           8   -0.0246   -0.0005    0.0020    0.0143    0.0000    0.0000    0.0000   -0.0021
           9    0.0008    0.0000   -0.0001   -0.0007    0.0000   -0.0000    0.0001   -0.0003
          10   -0.0274   -0.0035    0.0057    0.0066    0.0000   -0.0002    0.0001    0.0005
          11    0.2580    0.0245   -0.0353    0.0268   -0.0005    0.0008   -0.0007    0.0006
          12    0.0001    0.0002   -0.0006   -0.0004   -0.0003    0.0001   -0.0004    0.0017
          13   -0.0011    0.0003   -0.0021   -0.0198   -0.0000   -0.0001   -0.0001    0.0010
          14    0.0290    0.0019   -0.0056   -0.0295   -0.0001   -0.0001   -0.0001    0.0005
          15   -0.0000   -0.0000    0.0001    0.0011   -0.0000   -0.0000   -0.0000   -0.0002
          16   -0.1399   -0.0127    0.0267    0.0694    0.0001   -0.0003    0.0001    0.0006
          17   -0.1045   -0.0104    0.0220    0.0618    0.0000   -0.0001    0.0001    0.0001
          18    0.0085    0.0009   -0.0016   -0.0045    0.0002    0.0000    0.0003    0.0012
          19    0.0085    0.0009   -0.0045   -0.0356   -0.0000   -0.0001   -0.0001   -0.0007
          20   -0.0116   -0.0007    0.0014    0.0002    0.0001    0.0000    0.0001   -0.0004
          21   -0.0006   -0.0001    0.0003    0.0025    0.0000    0.0001   -0.0000   -0.0003
          22    0.0701    0.0026    0.0094    0.1741    0.0000    0.0005    0.0004   -0.0030
          23    0.0583    0.0011    0.0147    0.2158   -0.0002    0.0009    0.0006    0.0026
          24   -0.0052    0.0006    0.0001   -0.0101    0.0008   -0.0008    0.0003    0.0006
          25    0.0209   -0.0020    0.0256    0.2788    0.0003    0.0011    0.0011    0.0010
          26   -0.0099    0.0007   -0.0115   -0.1298   -0.0001   -0.0004   -0.0004   -0.0008
          27   -0.0015    0.0002   -0.0018   -0.0206    0.0000   -0.0004    0.0004    0.0012
          28   -0.0047    0.0083   -0.0135    0.0042   -0.0002   -0.0001    0.0001   -0.0001
          29   -0.0096    0.0175   -0.0288    0.0027   -0.0004   -0.0001   -0.0001   -0.0001
          30   -0.0010    0.0006   -0.0015    0.0004   -0.0002   -0.0001    0.0002   -0.0005
          31    0.0608   -0.0699    0.1167   -0.0294    0.0023    0.0010   -0.0008    0.0009
          32    0.0469   -0.0565    0.0912   -0.0256    0.0011    0.0003    0.0004   -0.0001
          33   -0.0027    0.0093   -0.0107    0.0019    0.0010    0.0007   -0.0016    0.0032
          34    0.0132   -0.0290    0.0484   -0.0135    0.0006    0.0004   -0.0002    0.0010
          35    0.0341   -0.0621    0.0994   -0.0225    0.0009    0.0002    0.0006   -0.0004
          36    0.0142   -0.0311    0.0499   -0.0113    0.0004    0.0002    0.0003   -0.0008
          37   -0.0031    0.0036   -0.0069    0.0022   -0.0005   -0.0003    0.0008   -0.0016
          38    0.0433   -0.0952    0.1577   -0.0305    0.0028    0.0006    0.0001   -0.0005
          39    0.0062    0.0096   -0.0134    0.0040    0.0006    0.0002   -0.0011    0.0016
          40   -0.0001    0.0081    0.0046   -0.0010   -0.0148    0.0139    0.0587   -0.0456
          41   -0.0001    0.0044    0.0025   -0.0004   -0.0142   -0.0068    0.0177   -0.0672
          42   -0.0000    0.0016    0.0009   -0.0002   -0.0024    0.0050    0.0141   -0.0026
          43   -0.0001   -0.0023   -0.0013    0.0002    0.0003    0.0136   -0.0265    0.0202
          44    0.0000    0.0090    0.0052   -0.0011   -0.0208   -0.0023    0.0549    0.0788
          45   -0.0001   -0.0020   -0.0012    0.0002    0.0037    0.0041   -0.0162   -0.0067
          46   -0.0000   -0.0027   -0.0016    0.0003    0.0174   -0.0177    0.0073    0.0380
          47   -0.0002    0.0068    0.0039   -0.0006   -0.0093    0.0329   -0.0433   -0.0243
          48    0.0001   -0.0020   -0.0011    0.0002    0.0061   -0.0102    0.0090    0.0145
          49   -0.0000    0.0074    0.0044   -0.0005   -0.0217   -0.0357   -0.0360    0.0428
          50   -0.0000    0.0027    0.0015   -0.0001    0.0058   -0.0099   -0.0229   -0.0117
          51    0.0000    0.0019    0.0012   -0.0001   -0.0069   -0.0089   -0.0069    0.0142
          52    0.0003   -0.0091   -0.0052    0.0008    0.0190   -0.0320    0.0301   -0.0551
          53   -0.0001    0.0030    0.0015   -0.0002    0.0282   -0.0195    0.0169    0.0027
          54    0.0000   -0.0027   -0.0018    0.0004    0.0010   -0.0059    0.0058   -0.0155
          55   -0.0000    0.0083    0.0047   -0.0006    0.0080   -0.0073   -0.0069   -0.0382
          56   -0.0002   -0.0052   -0.0034    0.0002    0.0359    0.0346    0.0319    0.0386
          57   -0.0000    0.0031    0.0017   -0.0003   -0.0031   -0.0072   -0.0068   -0.0164
          58   -0.0014   -0.0578   -0.0331    0.0049    0.0958    0.0510   -0.1366   -0.0072
          59   -0.0010   -0.0478   -0.0272    0.0040    0.0761    0.0276   -0.1223   -0.0383
          60    0.0000   -0.0090   -0.0051    0.0004    0.0158    0.0103   -0.0202    0.0042
          61   -0.0003    0.0022    0.0012   -0.0002   -0.0053    0.0135   -0.0022    0.0242
          62    0.0022   -0.0728   -0.0422    0.0080    0.1171   -0.0738   -0.1800    0.0307
          63   -0.0002    0.0120    0.0072   -0.0015   -0.0202    0.0157    0.0280    0.0023
          64   -0.0019    0.0249    0.0135   -0.0020   -0.1402    0.1271   -0.0583    0.0451
          65    0.0014   -0.0170   -0.0096    0.0016    0.1268   -0.0995    0.0293   -0.0190
          66   -0.0014    0.0093    0.0054   -0.0009   -0.0589    0.0512   -0.0204    0.0153
          67   -0.0006   -0.0321   -0.0208    0.0040    0.2022    0.1465    0.0551    0.0444
          68    0.0000    0.0074    0.0046   -0.0008   -0.0217   -0.0269   -0.0224   -0.0205
          69   -0.0003   -0.0103   -0.0065    0.0005    0.0613    0.0464    0.0188    0.0153
          70   -0.0010    0.1536    0.0865   -0.0149    0.0584    0.1533   -0.0901    0.0505
          71   -0.0002    0.0508    0.0290   -0.0051    0.0273    0.0463   -0.0321    0.0377
          72    0.0008    0.0332    0.0210   -0.0041    0.0112    0.0357   -0.0202    0.0069
          73    0.0011   -0.0631   -0.0356    0.0043   -0.0117    0.0670    0.0329    0.0048
          74   -0.0030    0.1466    0.0824   -0.0122    0.0471   -0.1463   -0.0821   -0.0622
          75    0.0013   -0.0399   -0.0217    0.0051   -0.0095    0.0415    0.0221    0.0093
          76    0.0001   -0.0130   -0.0072    0.0012   -0.0264   -0.0010   -0.0089    0.1569
          77    0.0007   -0.0287   -0.0157    0.0027   -0.0580    0.0027   -0.0197   -0.0699
          78   -0.0001    0.0005    0.0005   -0.0003    0.0013   -0.0007    0.0005    0.0549
          79    0.0001    0.0008    0.0005   -0.0002    0.0011    0.0147   -0.0008   -0.0996
          80   -0.0001    0.0018    0.0010   -0.0002    0.0008   -0.0066   -0.0009    0.0444
          81   -0.0000   -0.0000   -0.0001    0.0000    0.0002    0.0051   -0.0001   -0.0349


   Root No.      57        58        59        60        61        62        63        64

                57 A      58 A      59 A      60 A      61 A      62 A      63 A      64 A   

                1803.3    1834.0    1836.9    1844.9    1853.7    2669.0    2674.9    2709.2
  
           1   -0.0007   -0.0475   -0.0032   -0.0609   -0.0007   -0.0010    0.0043    0.0015
           2    0.0013    0.0996    0.0066    0.1282    0.0014    0.0004    0.0014    0.0001
           3   -0.0002   -0.0003   -0.0000   -0.0001    0.0001   -0.0027   -0.0006    0.0000
           4    0.0001   -0.0514   -0.0027   -0.0628   -0.0007    0.0238   -0.0885   -0.0235
           5   -0.0001   -0.0145   -0.0011   -0.0127    0.0001   -0.0014    0.0039   -0.0005
           6    0.0005    0.0030    0.0005    0.0023   -0.0000   -0.0004   -0.0005   -0.0000
           7    0.0004    0.0339    0.0019    0.0742    0.0008   -0.0000    0.0005   -0.0016
           8   -0.0015   -0.1150   -0.0079   -0.1203   -0.0014   -0.0000   -0.0010   -0.0018
           9    0.0001    0.0010    0.0001   -0.0005    0.0000   -0.0001   -0.0000    0.0001
          10    0.0007    0.0524    0.0039    0.0465    0.0006   -0.0010    0.0044    0.0216
          11   -0.0011   -0.0513   -0.0053    0.0767    0.0005   -0.0000   -0.0000   -0.0000
          12   -0.0004    0.0006   -0.0003   -0.0004   -0.0000    0.0002   -0.0001   -0.0007
          13    0.0022    0.1367    0.0126   -0.1223   -0.0009    0.0000   -0.0001    0.0083
          14    0.0009    0.0613    0.0054   -0.0258   -0.0001    0.0001   -0.0000   -0.0053
          15   -0.0001   -0.0094   -0.0008    0.0080    0.0000   -0.0000    0.0000   -0.0005
          16    0.0011    0.0682    0.0053    0.0330    0.0003    0.0004    0.0004   -0.1084
          17   -0.0003   -0.0226   -0.0029    0.0830    0.0008   -0.0004   -0.0001    0.1234
          18   -0.0004   -0.0053   -0.0006   -0.0012    0.0000    0.0001   -0.0000    0.0073
          19   -0.0020   -0.1208   -0.0112    0.1061    0.0007   -0.0000   -0.0001   -0.0125
          20   -0.0004   -0.0269   -0.0024    0.0223    0.0001    0.0000    0.0000    0.0401
          21    0.0001    0.0081    0.0008   -0.0071   -0.0001   -0.0000    0.0000    0.0013
          22   -0.0000   -0.0423   -0.0032    0.0387    0.0003    0.0002    0.0009    0.2916
          23    0.0003    0.0556    0.0047   -0.0492   -0.0000   -0.0001   -0.0010   -0.2503
          24    0.0001    0.0033    0.0004   -0.0035    0.0000    0.0001   -0.0001   -0.0219
          25   -0.0008   -0.0277   -0.0028    0.0151    0.0004   -0.0002    0.0004   -0.1318
          26   -0.0008   -0.0534   -0.0050    0.0573    0.0004   -0.0004    0.0009   -0.2689
          27   -0.0003    0.0023    0.0001   -0.0003   -0.0001    0.0001   -0.0000    0.0063
          28    0.0000    0.0013    0.0002    0.0014    0.0000    0.0102   -0.0382    0.0004
          29   -0.0002   -0.0096   -0.0006   -0.0144   -0.0001   -0.0059    0.0177   -0.0002
          30    0.0002   -0.0005    0.0001   -0.0004    0.0000   -0.0462   -0.0108    0.0000
          31   -0.0010   -0.0333   -0.0027   -0.0424   -0.0006   -0.1819    0.1541   -0.0030
          32   -0.0002   -0.0212   -0.0016   -0.0281   -0.0005    0.2346   -0.2105    0.0040
          33   -0.0008    0.0152    0.0004    0.0172    0.0001    0.1308   -0.1490    0.0027
          34   -0.0004   -0.0085   -0.0008   -0.0108   -0.0002   -0.0658   -0.0371    0.0007
          35   -0.0001   -0.0107   -0.0007   -0.0144   -0.0002   -0.1693   -0.0311    0.0008
          36   -0.0000   -0.0157   -0.0010   -0.0185   -0.0002    0.4228    0.1019   -0.0026
[...]
 FORCE CONSTANT      0.5166

 VIBRATION         39   39A           ATOM PAIR      ENERGY CONTRIBUTION    RADIAL
 FREQUENCY          1123.50         C 18 -- C 26         +10.4% ( 49.5%)     42.7%
 TRANSITION DIPOLE   0.3638         C 19 -- C 26         +10.4% ( 49.4%)     43.6%
 TRAVEL (Ang.)       0.2959         C 14 -- C 15          +9.2% ( 46.4%)      0.0%
 REDUCED MASS        0.6854         C 15 -- C 16          +9.1% ( 46.3%)     97.9%
 EFFECTIVE MASS      8.6649
 FORCE CONSTANT      0.5098

 VIBRATION         40   40A           ATOM PAIR      ENERGY CONTRIBUTION    RADIAL
 FREQUENCY          1151.58         C  1 -- C 10         +18.9% ( 63.2%)     62.7%
 TRANSITION DIPOLE   0.3623         C  1 -- C  3         +15.4% ( 57.2%)      2.5%
 TRAVEL (Ang.)       0.2274         C  3 -- C  5         +11.0% ( 48.3%)     95.6%
 REDUCED MASS        1.1322         C  3 -- H  4         +10.7% ( 47.5%)     53.5%
 EFFECTIVE MASS      8.2665
 FORCE CONSTANT      0.8846

 VIBRATION         41   41A           ATOM PAIR      ENERGY CONTRIBUTION    RADIAL
 FREQUENCY          1259.19         C  1 -- C 10         +23.9% ( 69.9%)     98.9%
 TRANSITION DIPOLE   0.1263         C  3 -- C  5         +13.2% ( 52.0%)     87.6%
 TRAVEL (Ang.)       0.1854         C  1 -- H  2         +11.2% ( 47.9%)     61.8%
 REDUCED MASS        1.5576         C  1 -- C  3         +11.1% ( 47.5%)      0.9%
 EFFECTIVE MASS      8.9464
 FORCE CONSTANT      1.4550

 VIBRATION         42   42A           ATOM PAIR      ENERGY CONTRIBUTION    RADIAL
 FREQUENCY          1273.33         C 10 -- H 12         +45.7% ( 58.9%)      0.3%
 TRANSITION DIPOLE   0.5108         C 10 -- H 13         +27.7% ( 45.8%)      4.8%
 TRAVEL (Ang.)       0.3779         C 10 -- H 11         +15.4% ( 34.2%)     13.5%
 REDUCED MASS        0.3708         C  1 -- C 10          +4.5% ( 18.5%)     27.4%
 EFFECTIVE MASS      1.5681
 FORCE CONSTANT      0.3542

 VIBRATION         43   43A           ATOM PAIR      ENERGY CONTRIBUTION    RADIAL
 FREQUENCY          1282.34         C 10 -- H 11         +40.1% ( 56.8%)      0.0%
 TRANSITION DIPOLE   0.6355         C 10 -- H 13         +25.5% ( 45.3%)      2.5%
 TRAVEL (Ang.)       0.3987         C 10 -- H 12         +17.7% ( 37.7%)     15.9%
 REDUCED MASS        0.3308         C  1 -- C 10          +4.5% ( 19.1%)     26.9%
 EFFECTIVE MASS      1.6971
 FORCE CONSTANT      0.3205

 VIBRATION         44   44A           ATOM PAIR      ENERGY CONTRIBUTION    RADIAL
 FREQUENCY          1291.24         C 17 -- H 23         +16.4% ( 49.6%)      2.5%
 TRANSITION DIPOLE   0.2719         C 16 -- H 22         +15.7% ( 48.6%)      2.6%
 TRAVEL (Ang.)       0.3164         C 18 -- C 26         +13.7% ( 45.3%)     84.5%
 REDUCED MASS        0.5215         C 19 -- C 26         +13.7% ( 45.2%)     84.7%
 EFFECTIVE MASS      4.6291
 FORCE CONSTANT      0.5123

 VIBRATION         45   45A           ATOM PAIR      ENERGY CONTRIBUTION    RADIAL
 FREQUENCY          1312.49         C 19 -- H 25         +23.9% ( 49.4%)      0.0%
 TRANSITION DIPOLE   0.1835         C 18 -- H 24         +23.1% ( 48.5%)      0.0%
 TRAVEL (Ang.)       0.5323         C 15 -- H 21         +11.8% ( 34.6%)      0.3%
 REDUCED MASS        0.1813         C 17 -- H 23         +11.5% ( 34.3%)      0.0%
 EFFECTIVE MASS      1.3650         C 14 -- H 20         +11.5% ( 34.2%)      0.3%
 FORCE CONSTANT      0.1840         C 16 -- H 22         +11.5% ( 34.2%)      0.1%

 VIBRATION         46   46A           ATOM PAIR      ENERGY CONTRIBUTION    RADIAL
 FREQUENCY          1319.30         C  1 -- H  2         +45.8% ( 73.2%)      0.6%
 TRANSITION DIPOLE   0.1663         C  5 -- H  6         +20.2% ( 48.6%)      6.7%
 TRAVEL (Ang.)       0.3669         C  3 -- C  5          +7.4% ( 29.5%)     51.3%
 REDUCED MASS        0.3797         C  7 -- H  8          +5.8% ( 26.1%)     14.4%
 EFFECTIVE MASS      2.5695
 FORCE CONSTANT      0.3894

 VIBRATION         47   47A           ATOM PAIR      ENERGY CONTRIBUTION    RADIAL
 FREQUENCY          1341.52         C 15 -- H 21         +30.7% ( 56.5%)      0.2%
 TRANSITION DIPOLE   0.1306         C 14 -- H 20         +30.6% ( 56.5%)      0.2%
 TRAVEL (Ang.)       0.4487         C 16 -- H 22         +13.3% ( 37.2%)      0.2%
 REDUCED MASS        0.2496         C 17 -- H 23         +12.7% ( 36.4%)      0.2%
 EFFECTIVE MASS      1.3943
 FORCE CONSTANT      0.2647

 VIBRATION         48   48A           ATOM PAIR      ENERGY CONTRIBUTION    RADIAL
 FREQUENCY          1342.10         C  3 -- H  4         +31.3% ( 62.5%)      0.1%
 TRANSITION DIPOLE   0.2427         C  5 -- H  6         +25.1% ( 56.0%)      0.0%
 TRAVEL (Ang.)       0.3810         C  1 -- H  2         +16.4% ( 45.2%)      2.2%
 REDUCED MASS        0.3462         C  1 -- C 10          +8.2% ( 32.1%)     28.4%
 EFFECTIVE MASS      2.3981
 FORCE CONSTANT      0.3674

 VIBRATION         49   49A           ATOM PAIR      ENERGY CONTRIBUTION    RADIAL
 FREQUENCY          1363.16         C  3 -- H  4         +35.6% ( 64.6%)      5.2%
 TRANSITION DIPOLE   0.3698         C  5 -- H  6         +16.9% ( 44.4%)      6.2%
 TRAVEL (Ang.)       0.3716         C  1 -- H  2         +12.4% ( 38.1%)     12.8%
 REDUCED MASS        0.3582         C  3 -- C  5         +11.4% ( 36.6%)     99.6%
 EFFECTIVE MASS      3.1464
 FORCE CONSTANT      0.3922

 VIBRATION         50   50A           ATOM PAIR      ENERGY CONTRIBUTION    RADIAL
 FREQUENCY          1390.83         C 18 -- H 24         +20.2% ( 48.0%)      0.9%
 TRANSITION DIPOLE   0.5513         C 19 -- H 25         +20.2% ( 47.9%)      0.9%
 TRAVEL (Ang.)       0.4149         C 10 -- H 13          +7.7% ( 29.5%)      1.7%
 REDUCED MASS        0.2816         C 10 -- H 11          +7.0% ( 28.3%)      1.7%
 EFFECTIVE MASS      2.5617
 FORCE CONSTANT      0.3209

 VIBRATION         51   51A           ATOM PAIR      ENERGY CONTRIBUTION    RADIAL
 FREQUENCY          1391.44         C 10 -- H 13         +23.4% ( 50.4%)      1.7%
 TRANSITION DIPOLE   0.6853         C 10 -- H 11         +21.2% ( 48.0%)      1.8%
 TRAVEL (Ang.)       0.4056         C 10 -- H 12         +16.1% ( 41.8%)      1.2%
 REDUCED MASS        0.2945         C 18 -- H 24          +7.3% ( 28.1%)      0.9%
 EFFECTIVE MASS      2.4581
 FORCE CONSTANT      0.3360

 VIBRATION         52   52A           ATOM PAIR      ENERGY CONTRIBUTION    RADIAL
 FREQUENCY          1398.11         C  7 -- H  9         +38.1% ( 62.3%)      0.4%
 TRANSITION DIPOLE   0.2994         C  7 -- H  8         +31.0% ( 56.2%)      3.0%
 TRAVEL (Ang.)       0.3373         C  5 -- H  6         +10.5% ( 32.7%)      1.9%
 REDUCED MASS        0.4239         C  3 -- C  5          +9.2% ( 30.6%)     95.4%
 EFFECTIVE MASS      2.4136
 FORCE CONSTANT      0.4882

 VIBRATION         53   53A           ATOM PAIR      ENERGY CONTRIBUTION    RADIAL
 FREQUENCY          1427.28         C 19 -- C 26         +16.4% ( 49.6%)     84.3%
 TRANSITION DIPOLE   0.0592         C 18 -- C 26         +15.6% ( 48.4%)     83.3%
 TRAVEL (Ang.)       0.2428         C 17 -- H 23         +14.7% ( 47.1%)      0.0%
 REDUCED MASS        0.8015         C 16 -- H 22         +12.5% ( 43.4%)      0.1%
 EFFECTIVE MASS      5.4462
 FORCE CONSTANT      0.9620

 VIBRATION         54   54A           ATOM PAIR      ENERGY CONTRIBUTION    RADIAL
 FREQUENCY          1436.25         C 16 -- H 22         +15.3% ( 47.3%)      2.0%
 TRANSITION DIPOLE   0.4021         C 18 -- H 24         +14.7% ( 46.4%)      0.8%
 TRAVEL (Ang.)       0.3208         C 19 -- H 25         +14.4% ( 46.0%)      0.6%
 REDUCED MASS        0.4562         C 17 -- H 23         +13.5% ( 44.5%)      2.6%
 EFFECTIVE MASS      4.8185
 FORCE CONSTANT      0.5544

 VIBRATION         55   55A           ATOM PAIR      ENERGY CONTRIBUTION    RADIAL
 FREQUENCY          1481.25         C 14 -- H 20         +14.2% ( 51.0%)      3.7%
 TRANSITION DIPOLE   0.6143         C 15 -- C 16         +14.1% ( 50.9%)     98.7%
 TRAVEL (Ang.)       0.2100         C 15 -- H 21         +14.0% ( 50.8%)      4.0%
 REDUCED MASS        1.0325         C 14 -- C 17         +13.7% ( 50.1%)     98.5%
 EFFECTIVE MASS      7.7360         C 14 -- C 15         +11.4% ( 45.7%)      0.0%
 FORCE CONSTANT      1.3348

 VIBRATION         56   56A           ATOM PAIR      ENERGY CONTRIBUTION    RADIAL
 FREQUENCY          1762.76         C 26 -- O 27         +32.7% ( 81.6%)    100.0%
 TRANSITION DIPOLE   4.5694         C 18 -- C 26         +16.1% ( 57.3%)     29.0%
 TRAVEL (Ang.)       0.1071         C 19 -- C 26         +16.1% ( 57.2%)     29.0%
 REDUCED MASS        3.3320         C 14 -- C 15          +8.8% ( 42.4%)    100.0%
 EFFECTIVE MASS     12.6797
 FORCE CONSTANT      6.1002

 VIBRATION         57   57A           ATOM PAIR      ENERGY CONTRIBUTION    RADIAL
 FREQUENCY          1803.33         C 14 -- C 15         +21.3% ( 65.6%)    100.0%
 TRANSITION DIPOLE   0.8742         C 26 -- O 27         +15.1% ( 55.2%)    100.0%
 TRAVEL (Ang.)       0.1360         C 15 -- C 16         +10.4% ( 45.8%)     93.3%
 REDUCED MASS        2.0203         C 14 -- C 17         +10.1% ( 45.3%)     92.7%
 EFFECTIVE MASS     12.2814
 FORCE CONSTANT      3.8709

 VIBRATION         58   58A           ATOM PAIR      ENERGY CONTRIBUTION    RADIAL
 FREQUENCY          1834.00         C  5 -- C  7         +26.4% ( 75.7%)     98.5%
 TRANSITION DIPOLE   0.9691         C  1 -- C  3         +18.0% ( 62.5%)     96.2%
 TRAVEL (Ang.)       0.1120         C  3 -- C  5         +17.4% ( 61.5%)     98.5%
 REDUCED MASS        2.9321         C  5 -- H  6          +9.5% ( 45.3%)      4.2%
 EFFECTIVE MASS     11.8083
 FORCE CONSTANT      5.8106

 VIBRATION         59   59A           ATOM PAIR      ENERGY CONTRIBUTION    RADIAL
 FREQUENCY          1836.89         C 16 -- C 18         +15.9% ( 58.0%)     99.5%
 TRANSITION DIPOLE   0.9729         C 14 -- C 15         +15.2% ( 56.7%)    100.0%
 TRAVEL (Ang.)       0.1403         C 17 -- C 19         +13.3% ( 53.0%)     99.3%
 REDUCED MASS        1.8651         C 15 -- C 16          +8.8% ( 43.1%)      0.1%
 EFFECTIVE MASS     11.7579
 FORCE CONSTANT      3.7079

 VIBRATION         60   60A           ATOM PAIR      ENERGY CONTRIBUTION    RADIAL
 FREQUENCY          1844.90         C  1 -- C  3         +26.9% ( 75.4%)     99.6%
 TRANSITION DIPOLE   0.7687         C  5 -- C  7         +18.8% ( 63.0%)    100.0%
 TRAVEL (Ang.)       0.1127         C  3 -- C  5         +14.1% ( 54.6%)      0.1%
 REDUCED MASS        2.8801         C  1 -- C 10          +8.4% ( 42.2%)     43.5%
 EFFECTIVE MASS     11.6655
 FORCE CONSTANT      5.7757

 VIBRATION         61   61A           ATOM PAIR      ENERGY CONTRIBUTION    RADIAL
 FREQUENCY          1853.72         C 17 -- C 19         +23.1% ( 70.5%)    100.0%
 TRANSITION DIPOLE   0.1017         C 16 -- C 18         +20.1% ( 65.8%)    100.0%
 TRAVEL (Ang.)       0.1141         C 14 -- C 17          +8.2% ( 41.9%)     59.4%
 REDUCED MASS        2.7918         C 19 -- C 26          +7.4% ( 39.9%)     68.3%
 EFFECTIVE MASS     11.9066
 FORCE CONSTANT      5.6523

 VIBRATION         62   62A           ATOM PAIR      ENERGY CONTRIBUTION    RADIAL
 FREQUENCY          2669.02         C 10 -- H 12         +62.5% ( 81.5%)     99.3%
 TRANSITION DIPOLE   0.7032         C 10 -- H 11         +31.6% ( 57.9%)     94.5%
 TRAVEL (Ang.)       0.2234         C 10 -- H 13          +4.9% ( 22.8%)     57.4%
 REDUCED MASS        0.5062         C  1 -- C 10          +0.8% (  9.4%)      0.0%
 EFFECTIVE MASS      1.4361
 FORCE CONSTANT      2.1244

 VIBRATION         63   63A           ATOM PAIR      ENERGY CONTRIBUTION    RADIAL
 FREQUENCY          2674.87         C 10 -- H 13         +59.1% ( 79.3%)     99.2%
 TRANSITION DIPOLE   0.4121         C 10 -- H 11         +32.1% ( 58.5%)     94.9%
 TRAVEL (Ang.)       0.2314         C 10 -- H 12          +5.1% ( 23.3%)     59.0%
 REDUCED MASS        0.4709         C  1 -- H  2          +2.6% ( 16.7%)    100.0%
 EFFECTIVE MASS      1.4409
 FORCE CONSTANT      1.9851

 VIBRATION         64   64A           ATOM PAIR      ENERGY CONTRIBUTION    RADIAL
 FREQUENCY          2709.21         C  7 -- H  8         +54.5% ( 76.1%)     99.2%
 TRANSITION DIPOLE   0.2996         C  7 -- H  9         +34.3% ( 60.3%)     97.4%
 TRAVEL (Ang.)       0.2391         C  5 -- H  6          +9.4% ( 31.6%)     99.8%
 REDUCED MASS        0.4353         C  5 -- C  7          +1.1% ( 10.6%)      5.0%
 EFFECTIVE MASS      1.4591
 FORCE CONSTANT      1.8824

 VIBRATION         65   65A           ATOM PAIR      ENERGY CONTRIBUTION    RADIAL
 FREQUENCY          2714.53         C 17 -- H 23         +24.5% ( 50.1%)    100.0%
 TRANSITION DIPOLE   0.2233         C 16 -- H 22         +20.2% ( 45.4%)    100.0%
 TRAVEL (Ang.)       0.3851         C 19 -- H 25         +15.6% ( 40.0%)     99.9%
 REDUCED MASS        0.1675         C 14 -- H 20         +13.3% ( 36.9%)    100.0%
 EFFECTIVE MASS      1.3408         C 18 -- H 24         +12.4% ( 35.7%)     99.9%
 FORCE CONSTANT      0.7272         C 15 -- H 21         +12.3% ( 35.5%)    100.0%

 VIBRATION         66   66A           ATOM PAIR      ENERGY CONTRIBUTION    RADIAL
 FREQUENCY          2717.98         C 16 -- H 22         +27.8% ( 53.3%)    100.0%
 TRANSITION DIPOLE   0.7100         C 17 -- H 23         +23.7% ( 49.2%)     99.9%
 TRAVEL (Ang.)       0.3359         C 18 -- H 24         +22.5% ( 47.9%)     99.9%
 REDUCED MASS        0.2199         C 19 -- H 25         +20.6% ( 45.9%)     99.9%
 EFFECTIVE MASS      1.3408
 FORCE CONSTANT      0.9570

 VIBRATION         67   67A           ATOM PAIR      ENERGY CONTRIBUTION    RADIAL
 FREQUENCY          2726.42         C 14 -- H 20         +28.9% ( 54.1%)     99.9%
 TRANSITION DIPOLE   0.1024         C 15 -- H 21         +24.6% ( 50.0%)     99.8%
 TRAVEL (Ang.)       0.3248         C 19 -- H 25         +23.4% ( 48.8%)    100.0%
 REDUCED MASS        0.2345         C 18 -- H 24         +21.1% ( 46.3%)    100.0%
 EFFECTIVE MASS      1.3298
 FORCE CONSTANT      1.0269

 VIBRATION         68   68A           ATOM PAIR      ENERGY CONTRIBUTION    RADIAL
 FREQUENCY          2730.70         C 18 -- H 24         +24.8% ( 50.1%)    100.0%
 TRANSITION DIPOLE   0.7426         C 19 -- H 25         +22.3% ( 47.5%)    100.0%
 TRAVEL (Ang.)       0.3805         C 15 -- H 21         +14.7% ( 38.6%)     99.9%
 REDUCED MASS        0.1706         C 17 -- H 23         +13.3% ( 36.6%)     99.9%
 EFFECTIVE MASS      1.3546         C 16 -- H 22         +12.1% ( 34.9%)     99.9%
 FORCE CONSTANT      0.7494         C 14 -- H 20         +10.8% ( 33.1%)     99.9%

 VIBRATION         69   69A           ATOM PAIR      ENERGY CONTRIBUTION    RADIAL
 FREQUENCY          2734.88         C  1 -- H  2         +33.4% ( 58.4%)     99.9%
 TRANSITION DIPOLE   0.8918         C 17 -- H 23         +14.9% ( 39.0%)     99.9%
 TRAVEL (Ang.)       0.3792         C 16 -- H 22         +14.2% ( 38.1%)     99.9%
 REDUCED MASS        0.1715         C  3 -- H  4          +9.0% ( 30.2%)    100.0%
 EFFECTIVE MASS      1.3817
 FORCE CONSTANT      0.7556

 VIBRATION         70   70A           ATOM PAIR      ENERGY CONTRIBUTION    RADIAL
 FREQUENCY          2735.57         C  1 -- H  2         +40.2% ( 64.1%)     99.9%
 TRANSITION DIPOLE   1.1615         C 16 -- H 22         +12.5% ( 35.7%)    100.0%
 TRAVEL (Ang.)       0.3450         C 17 -- H 23         +11.3% ( 33.9%)     99.9%
 REDUCED MASS        0.2071         C  3 -- H  4         +10.4% ( 32.6%)    100.0%
 EFFECTIVE MASS      1.3849
 FORCE CONSTANT      0.9132

 VIBRATION         71   71A           ATOM PAIR      ENERGY CONTRIBUTION    RADIAL
 FREQUENCY          2745.51         C 15 -- H 21         +35.5% ( 59.9%)    100.0%
 TRANSITION DIPOLE   0.7641         C 14 -- H 20         +33.4% ( 58.1%)    100.0%
 TRAVEL (Ang.)       0.3102         C 16 -- H 22         +10.9% ( 33.2%)     99.8%
 REDUCED MASS        0.2553         C 17 -- H 23          +9.8% ( 31.5%)     99.8%
 EFFECTIVE MASS      1.4245
 FORCE CONSTANT      1.1339

 VIBRATION         72   72A           ATOM PAIR      ENERGY CONTRIBUTION    RADIAL
 FREQUENCY          2753.45         C  5 -- H  6         +69.9% ( 84.3%)    100.0%
 TRANSITION DIPOLE   0.2850         C  3 -- H  4         +11.6% ( 34.4%)     99.9%
 TRAVEL (Ang.)       0.2221         C  1 -- H  2          +7.7% ( 27.9%)     99.6%
 REDUCED MASS        0.4966         C  7 -- H  9          +4.0% ( 20.3%)     96.9%
 EFFECTIVE MASS      1.3959
 FORCE CONSTANT      2.2181

 VIBRATION         73   73A           ATOM PAIR      ENERGY CONTRIBUTION    RADIAL
 FREQUENCY          2765.79         C  3 -- H  4         +62.9% ( 79.6%)     99.9%
 TRANSITION DIPOLE   0.9623         C  5 -- H  6         +16.2% ( 40.3%)     99.6%
 TRAVEL (Ang.)       0.2425         C  1 -- H  2          +9.4% ( 30.7%)     99.5%
 REDUCED MASS        0.4146         C 10 -- H 11          +3.5% ( 18.8%)     98.3%
 EFFECTIVE MASS      1.3844
 FORCE CONSTANT      1.8684

 VIBRATION         74   74A           ATOM PAIR      ENERGY CONTRIBUTION    RADIAL
 FREQUENCY          2780.65         C 10 -- H 13         +31.2% ( 53.9%)     96.0%
 TRANSITION DIPOLE   0.6899         C 10 -- H 11         +26.7% ( 49.9%)     94.9%
 TRAVEL (Ang.)       0.3140         C 10 -- H 12         +26.7% ( 49.9%)     94.9%
 REDUCED MASS        0.2460         C  3 -- H  4          +5.0% ( 21.5%)     99.5%
 EFFECTIVE MASS      1.1817
 FORCE CONSTANT      1.1206

 VIBRATION         75   75A           ATOM PAIR      ENERGY CONTRIBUTION    RADIAL
 FREQUENCY          2783.05         C  7 -- H  9         +55.9% ( 73.9%)     96.3%
 TRANSITION DIPOLE   0.7208         C  7 -- H  8         +37.2% ( 60.3%)     93.0%
 TRAVEL (Ang.)       0.2338         C 10 -- H 11          +1.9% ( 13.5%)     95.9%
 REDUCED MASS        0.4431         C 10 -- H 13          +1.7% ( 13.1%)     95.3%
 EFFECTIVE MASS      1.3131
 FORCE CONSTANT      2.0223

           FORCE CONSTANT IN CARTESIAN COORDINATES (Millidynes/A)

    ATOM   CHEMICAL       X               Y               Z
   NUMBER   SYMBOL  FORCE CONSTANT  FORCE CONSTANT  FORCE CONSTANT

      1       C        9.197108       13.040934        2.551339
      2       H        4.201282        0.957480        0.380976
      3       C        9.311533       13.307594        2.309442
      4       H        4.262256        0.984473        0.381168
      5       C       14.264121        8.586359        2.411724
      6       H        2.454293        2.756758        0.392154
      7       C       13.813077        6.894966        2.252454
      8       H        2.670864        2.285738        0.393181
      9       H        1.332791        3.663718        0.367253
     10       C        6.650261        7.446884        5.983237
     11       H        1.717914        2.405044        1.287796
     12       H        0.639302        1.093726        3.594552
     13       H        3.418188        0.770773        1.242710
     14       C        9.439113       12.197260        2.890826
     15       C        7.934537       13.708170        2.913060
     16       C       12.750806        8.503635        3.524753
     17       C       12.292657        8.918636        3.553804
     18       C       13.793340        7.097208        3.289439
     19       C       10.555685       10.258457        3.367546
     20       H        2.025064        2.879583        0.678415
     21       H        3.917280        1.033548        0.632152
     22       H        2.266991        2.862219        0.439426
     23       H        1.048990        4.059480        0.459474
     24       H        1.158116        3.790463        0.604768
     25       H        3.361569        1.622962        0.564085
     26       C       12.658133        9.824633        3.829356
     27       O       10.405974        3.133559        1.545562

 **********************
 *                    *
 * JOB ENDED NORMALLY *
 *                    *
 **********************



 TOTAL JOB TIME:             1.65 SECONDS

 == MOPAC DONE ==
